 vasp.6.3.0 20Jan22 (build Apr  1 2022 16:44:48) complex                         
 executed on        HPECrayEX_GCC date 2023.01.23  22:52:14
 running  768 mpi-ranks, with    1 threads/rank
 distrk:  each k-point on  768 cores,    1 groups
 distr:  one band on NCORE=   8 cores,   96 groups


--------------------------------------------------------------------------------------------------------


 INCAR:
   SYSTEM = MgO-rocksalt
   ISMEAR = 0
   SIGMA = 0.05
   EDIFF = 1E-8
   ALGO = ALL
   ISTART = 0
   IBRION = 5
   POTIM = 0.01
   NFREE = 2
   ISYM = 0
   DIPOL = 0.5 0.5 0.5
   IDIPOL = 3
   LDIPOL = .TRUE.
   GGA = RE
   IVDW = 13
   VDW_S8 = 1.7468
   VDW_A1 = 0.5363
   VDW_A2 = 3.0726
   ENCUT = 600
   PREC = Accurate
   LASPH = .TRUE.
   LREAL = .FALSE.
   ISPIN = 1
   NELM = 200
   NELMIN = 8
   NCORE = 8
   KPAR = 1
   LWAVE = .FALSE.
   LCHARG = .FALSE.

 POTCAR:    PAW_PBE C 08Apr2002                   
 POTCAR:    PAW_PBE O 08Apr2002                   
 POTCAR:    PAW_PBE Mg_pv 13Apr2007               
 POTCAR:    PAW_PBE O 08Apr2002                   
 POTCAR:    PAW_PBE C 08Apr2002                   
   SHA256 =  253f7b50bb8d59471dbedb8285d89021f4a42ed1a2c5d38a03a736e69125dd95 C/POTCAR              
   COPYR  = (c) Copyright 08Apr2002 Georg Kresse                                                    
   COPYR  = This file is part of the software VASP. Any use, copying, and all other rights are regul
   COPYR  = If you do not have a valid VASP license, you may not use, copy or distribute this file. 
   VRHFIN =C: s2p2                                                                                  
   LEXCH  = PE                                                                                      
   EATOM  =   147.1560 eV,   10.8157 Ry                                                             
                                                                                                    
   TITEL  = PAW_PBE C 08Apr2002                                                                     
   LULTRA =        F    use ultrasoft PP ?                                                          
   IUNSCR =        1    unscreen: 0-lin 1-nonlin 2-no                                               
   RPACOR =    1.200    partial core radius                                                         
   POMASS =   12.011; ZVAL   =    4.000    mass and valenz                                          
   RCORE  =    1.500    outmost cutoff radius                                                       
   RWIGS  =    1.630; RWIGS  =    0.863    wigner-seitz radius (au A)                               
   ENMAX  =  400.000; ENMIN  =  300.000 eV                                                          
   ICORE  =        2    local potential                                                             
   LCOR   =        T    correct aug charges                                                         
   LPAW   =        T    paw PP                                                                      
   EAUG   =  644.873                                                                                
   DEXC   =    0.000                                                                                
   RMAX   =    1.529    core radius for proj-oper                                                   
   RAUG   =    1.300    factor for augmentation sphere                                              
   RDEP   =    1.501    radius for radial grids                                                     
   RDEPT  =    1.300    core radius for aug-charge                                                  
                                                                                                    
   Atomic configuration                                                                             
    4 entries                                                                                       
     n  l   j            E        occ.                                                              
     1  0  0.50      -273.3789   2.0000                                                             
     2  0  0.50       -13.7508   2.0000                                                             
     2  1  0.50        -5.2854   2.0000                                                             
     3  2  1.50        -5.4423   0.0000                                                             
   Description                                                                                      
     l       E           TYP  RCUT    TYP  RCUT                                                     
     0    -13.7508458     23  1.200                                                                 
     0     -8.2022199     23  1.200                                                                 
     1     -5.2854383     23  1.500                                                                 
     1     34.0145650     23  1.500                                                                 
     2     -5.4423304      7  1.500                                                                 
  local pseudopotential read in
  partial core-charges read in
  partial kinetic energy density read in
  atomic valenz-charges read in
  non local Contribution for L=           0  read in
    real space projection operators read in
  non local Contribution for L=           0  read in
    real space projection operators read in
  non local Contribution for L=           1  read in
    real space projection operators read in
  non local Contribution for L=           1  read in
    real space projection operators read in
    PAW grid and wavefunctions read in

   number of l-projection  operators is LMAX  =           4
   number of lm-projection operators is LMMAX =           8

 POTCAR:    PAW_PBE O 08Apr2002                   
   SHA256 =  818f92134a0a090dccd8ba1447fa70422a3b330e708bb4f08108d8ae51209ddf O/POTCAR              
   COPYR  = (c) Copyright 08Apr2002 Georg Kresse                                                    
   COPYR  = This file is part of the software VASP. Any use, copying, and all other rights are regul
   COPYR  = If you do not have a valid VASP license, you may not use, copy or distribute this file. 
   VRHFIN =O: s2p4                                                                                  
   LEXCH  = PE                                                                                      
   EATOM  =   432.3788 eV,   31.7789 Ry                                                             
                                                                                                    
   TITEL  = PAW_PBE O 08Apr2002                                                                     
   LULTRA =        F    use ultrasoft PP ?                                                          
   IUNSCR =        1    unscreen: 0-lin 1-nonlin 2-no                                               
   RPACOR =    1.200    partial core radius                                                         
   POMASS =   16.000; ZVAL   =    6.000    mass and valenz                                          
   RCORE  =    1.520    outmost cutoff radius                                                       
   RWIGS  =    1.550; RWIGS  =    0.820    wigner-seitz radius (au A)                               
   ENMAX  =  400.000; ENMIN  =  300.000 eV                                                          
   ICORE  =        2    local potential                                                             
   LCOR   =        T    correct aug charges                                                         
   LPAW   =        T    paw PP                                                                      
   EAUG   =  605.392                                                                                
   DEXC   =    0.000                                                                                
   RMAX   =    1.553    core radius for proj-oper                                                   
   RAUG   =    1.300    factor for augmentation sphere                                              
   RDEP   =    1.550    radius for radial grids                                                     
   RDEPT  =    1.329    core radius for aug-charge                                                  
                                                                                                    
   Atomic configuration                                                                             
    4 entries                                                                                       
     n  l   j            E        occ.                                                              
     1  0  0.50      -514.6923   2.0000                                                             
     2  0  0.50       -23.9615   2.0000                                                             
     2  1  0.50        -9.0305   4.0000                                                             
     3  2  1.50        -9.5241   0.0000                                                             
   Description                                                                                      
     l       E           TYP  RCUT    TYP  RCUT                                                     
     0    -23.9615318     23  1.200                                                                 
     0     -9.5240782     23  1.200                                                                 
     1     -9.0304911     23  1.520                                                                 
     1      8.1634956     23  1.520                                                                 
     2     -9.5240782      7  1.500                                                                 
  local pseudopotential read in
  partial core-charges read in
  partial kinetic energy density read in
  kinetic energy density of atom read in
  atomic valenz-charges read in
  non local Contribution for L=           0  read in
    real space projection operators read in
  non local Contribution for L=           0  read in
    real space projection operators read in
  non local Contribution for L=           1  read in
    real space projection operators read in
  non local Contribution for L=           1  read in
    real space projection operators read in
    PAW grid and wavefunctions read in

   number of l-projection  operators is LMAX  =           4
   number of lm-projection operators is LMMAX =           8

 POTCAR:    PAW_PBE Mg_pv 13Apr2007               
   SHA256 =  f474ac0dd33840b9ae76c01d57fea79fdf77cdfbb07d5ade72c65f83c709b62b Mg_pv/POTCAR          
   COPYR  = (c) Copyright 13Apr2007 Georg Kresse                                                    
   COPYR  = This file is part of the software VASP. Any use, copying, and all other rights are regul
   COPYR  = If you do not have a valid VASP license, you may not use, copy or distribute this file. 
   VRHFIN =Mg: p6s2                                                                                 
   LEXCH  = PE                                                                                      
   EATOM  =  1056.7344 eV,   77.6678 Ry                                                             
                                                                                                    
   TITEL  = PAW_PBE Mg_pv 13Apr2007                                                                 
   LULTRA =        F    use ultrasoft PP ?                                                          
   IUNSCR =        1    unscreen: 0-lin 1-nonlin 2-no                                               
   RPACOR =    1.500    partial core radius                                                         
   POMASS =   24.305; ZVAL   =    8.000    mass and valenz                                          
   RCORE  =    2.000    outmost cutoff radius                                                       
   RWIGS  =    2.000; RWIGS  =    1.058    wigner-seitz radius (au A)                               
   ENMAX  =  403.929; ENMIN  =  302.947 eV                                                          
   RCLOC  =    1.506    cutoff for local pot                                                        
   LCOR   =        T    correct aug charges                                                         
   LPAW   =        T    paw PP                                                                      
   EAUG   =  758.780                                                                                
   DEXC   =    0.000                                                                                
   RMAX   =    2.045    core radius for proj-oper                                                   
   RAUG   =    1.300    factor for augmentation sphere                                              
   RDEP   =    2.025    radius for radial grids                                                     
   RDEPT  =    1.557    core radius for aug-charge                                                  
                                                                                                    
   Atomic configuration                                                                             
    5 entries                                                                                       
     n  l   j            E        occ.                                                              
     1  0  0.50     -1259.6230   2.0000                                                             
     2  0  0.50       -79.8442   2.0000                                                             
     2  1  1.50       -46.6121   6.0000                                                             
     3  0  0.50        -4.7055   2.0000                                                             
     3  2  1.50        -1.3606   0.0000                                                             
   Description                                                                                      
     l       E           TYP  RCUT    TYP  RCUT                                                     
     1    -46.6121073     23  1.600                                                                 
     1      2.7211652     23  1.600                                                                 
     0     -4.7054661     23  2.000                                                                 
     0     61.2262170     23  2.000                                                                 
     2     -1.3605826     23  2.000                                                                 
  local pseudopotential read in
  partial core-charges read in
  partial kinetic energy density read in
  atomic valenz-charges read in
  non local Contribution for L=           1  read in
    real space projection operators read in
  non local Contribution for L=           1  read in
    real space projection operators read in
  non local Contribution for L=           0  read in
    real space projection operators read in
  non local Contribution for L=           0  read in
    real space projection operators read in
  non local Contribution for L=           2  read in
    real space projection operators read in
    PAW grid and wavefunctions read in

   number of l-projection  operators is LMAX  =           5
   number of lm-projection operators is LMMAX =          13

 POTCAR:    PAW_PBE O 08Apr2002                   
   SHA256 =  818f92134a0a090dccd8ba1447fa70422a3b330e708bb4f08108d8ae51209ddf O/POTCAR              
   COPYR  = (c) Copyright 08Apr2002 Georg Kresse                                                    
   COPYR  = This file is part of the software VASP. Any use, copying, and all other rights are regul
   COPYR  = If you do not have a valid VASP license, you may not use, copy or distribute this file. 
   VRHFIN =O: s2p4                                                                                  
   LEXCH  = PE                                                                                      
   EATOM  =   432.3788 eV,   31.7789 Ry                                                             
                                                                                                    
   TITEL  = PAW_PBE O 08Apr2002                                                                     
   LULTRA =        F    use ultrasoft PP ?                                                          
   IUNSCR =        1    unscreen: 0-lin 1-nonlin 2-no                                               
   RPACOR =    1.200    partial core radius                                                         
   POMASS =   16.000; ZVAL   =    6.000    mass and valenz                                          
   RCORE  =    1.520    outmost cutoff radius                                                       
   RWIGS  =    1.550; RWIGS  =    0.820    wigner-seitz radius (au A)                               
   ENMAX  =  400.000; ENMIN  =  300.000 eV                                                          
   ICORE  =        2    local potential                                                             
   LCOR   =        T    correct aug charges                                                         
   LPAW   =        T    paw PP                                                                      
   EAUG   =  605.392                                                                                
   DEXC   =    0.000                                                                                
   RMAX   =    1.553    core radius for proj-oper                                                   
   RAUG   =    1.300    factor for augmentation sphere                                              
   RDEP   =    1.550    radius for radial grids                                                     
   RDEPT  =    1.329    core radius for aug-charge                                                  
                                                                                                    
   Atomic configuration                                                                             
    4 entries                                                                                       
     n  l   j            E        occ.                                                              
     1  0  0.50      -514.6923   2.0000                                                             
     2  0  0.50       -23.9615   2.0000                                                             
     2  1  0.50        -9.0305   4.0000                                                             
     3  2  1.50        -9.5241   0.0000                                                             
   Description                                                                                      
     l       E           TYP  RCUT    TYP  RCUT                                                     
     0    -23.9615318     23  1.200                                                                 
     0     -9.5240782     23  1.200                                                                 
     1     -9.0304911     23  1.520                                                                 
     1      8.1634956     23  1.520                                                                 
     2     -9.5240782      7  1.500                                                                 
  local pseudopotential read in
  partial core-charges read in
  partial kinetic energy density read in
  kinetic energy density of atom read in
  atomic valenz-charges read in
  non local Contribution for L=           0  read in
    real space projection operators read in
  non local Contribution for L=           0  read in
    real space projection operators read in
  non local Contribution for L=           1  read in
    real space projection operators read in
  non local Contribution for L=           1  read in
    real space projection operators read in
    PAW grid and wavefunctions read in

   number of l-projection  operators is LMAX  =           4
   number of lm-projection operators is LMMAX =           8

 -----------------------------------------------------------------------------
|                                                                             |
|               ----> ADVICE to this user running VASP <----                  |
|                                                                             |
|     You have a (more or less) 'large supercell' and for larger cells it     |
|     might be more efficient to use real-space projection operators.         |
|     Therefore, try LREAL= Auto in the INCAR file.                           |
|     Mind: For very accurate calculation, you might also keep the            |
|     reciprocal projection scheme (i.e. LREAL=.FALSE.).                      |
|                                                                             |
 -----------------------------------------------------------------------------

 -----------------------------------------------------------------------------
|                                                                             |
|               ----> ADVICE to this user running VASP <----                  |
|                                                                             |
|     You enforced a specific xc type in the INCAR file but a different       |
|     type was found in the POTCAR file.                                      |
|     I HOPE YOU KNOW WHAT YOU ARE DOING!                                     |
|                                                                             |
 -----------------------------------------------------------------------------

  PAW_PBE C 08Apr2002                   :
 energy of atom  1       EATOM= -147.1560
 kinetic energy error for atom=    0.0057 (will be added to EATOM!!)
  PAW_PBE O 08Apr2002                   :
 energy of atom  2       EATOM= -432.3788
 kinetic energy error for atom=    0.0168 (will be added to EATOM!!)
  PAW_PBE Mg_pv 13Apr2007               :
 energy of atom  3       EATOM=-1056.7344
 kinetic energy error for atom=    0.0221 (will be added to EATOM!!)
  PAW_PBE O 08Apr2002                   :
 energy of atom  4       EATOM= -432.3788
 kinetic energy error for atom=    0.0168 (will be added to EATOM!!)


 POSCAR:  C  O Mg  O
  positions in direct lattice
  No initial velocities read in
 -----------------------------------------------------------------------------
|                                                                             |
|           W    W    AA    RRRRR   N    N  II  N    N   GGGG   !!!           |
|           W    W   A  A   R    R  NN   N  II  NN   N  G    G  !!!           |
|           W    W  A    A  R    R  N N  N  II  N N  N  G       !!!           |
|           W WW W  AAAAAA  RRRRR   N  N N  II  N  N N  G  GGG   !            |
|           WW  WW  A    A  R   R   N   NN  II  N   NN  G    G                |
|           W    W  A    A  R    R  N    N  II  N    N   GGGG   !!!           |
|                                                                             |
|     Specifying the vdW parameters                                           |
|     VDW_S8 = 1.747                                                          |
|     VDW_A1 = 0.536                                                          |
|     VDW_A2 = 3.073                                                          |
|     in the INCAR file will overwrite the defaults for revpbe. Please        |
|     make sure that is what you intended.                                    |
|                                                                             |
 -----------------------------------------------------------------------------

 exchange correlation table for  LEXCH =       40
   RHO(1)=    0.500       N(1)  =     2000
   RHO(2)=  100.500       N(2)  =     4000



--------------------------------------------------------------------------------------------------------


 ion  position               nearest neighbor table
   1  0.500  0.500  0.765-   2 1.15
   2  0.500  0.500  0.819-   1 1.15
   3  0.000  0.750  0.352-  35 2.11  37 2.11  38 2.11  45 2.11  54 2.11
   4  0.250  0.000  0.352-  36 2.11  37 2.11  38 2.11  46 2.11  53 2.11
   5  0.000  0.000  0.451-  37 2.11  36 2.11  35 2.11  43 2.11  52 2.11  41 2.12
   6  0.250  0.750  0.451-  38 2.11  36 2.11  35 2.11  44 2.11  51 2.11  42 2.12
   7  0.000  0.750  0.550-  49 2.11  42 2.11  58 2.11  41 2.11  35 2.12  39 2.15
   8  0.250  0.000  0.550-  57 2.11  50 2.11  42 2.11  41 2.11  36 2.12  40 2.15
   9  0.000  0.000  0.649-  39 2.11  40 2.11  47 2.11  56 2.11  41 2.11
  10  0.250  0.750  0.649-  42 2.11  40 2.11  39 2.11  48 2.11  55 2.11
  11  0.000  0.250  0.352-  43 2.11  37 2.11  45 2.11  46 2.11  62 2.11
  12  0.250  0.500  0.352-  44 2.11  38 2.11  45 2.11  46 2.11  61 2.11
  13  0.000  0.500  0.451-  45 2.11  43 2.11  44 2.11  35 2.11  60 2.11  49 2.12
  14  0.250  0.250  0.451-  46 2.11  43 2.11  44 2.11  36 2.11  59 2.11  50 2.12
  15  0.000  0.250  0.550-  49 2.11  50 2.11  66 2.11  41 2.11  43 2.12  47 2.15
  16  0.250  0.500  0.550-  65 2.11  50 2.11  42 2.11  49 2.11  44 2.13  48 2.15
  17  0.000  0.500  0.649-  48 2.10  64 2.10  49 2.11  47 2.11  39 2.11
  18  0.250  0.250  0.649-  50 2.11  47 2.11  40 2.11  48 2.11  63 2.11
  19  0.500  0.750  0.352-  51 2.11  38 2.11  53 2.11  54 2.11  61 2.11
  20  0.750  0.000  0.352-  52 2.11  37 2.11  53 2.11  54 2.11  62 2.11
  21  0.500  0.000  0.451-  53 2.11  51 2.11  52 2.11  36 2.11  59 2.11  57 2.12
  22  0.750  0.750  0.451-  54 2.11  51 2.11  52 2.11  35 2.11  60 2.11  58 2.12
  23  0.500  0.750  0.550-  65 2.11  58 2.11  42 2.11  57 2.11  51 2.13  55 2.15
  24  0.750  0.000  0.550-  57 2.11  58 2.11  66 2.11  41 2.11  52 2.12  56 2.15
  25  0.500  0.000  0.649-  55 2.10  63 2.10  57 2.11  40 2.11  56 2.11
  26  0.750  0.750  0.649-  58 2.11  56 2.11  39 2.11  55 2.11  64 2.11
  27  0.500  0.250  0.352-  59 2.11  53 2.11  46 2.11  61 2.11  62 2.11
  28  0.750  0.500  0.352-  60 2.11  54 2.11  45 2.11  61 2.11  62 2.11
  29  0.500  0.500  0.451-  61 2.11  51 2.11  59 2.11  60 2.11  44 2.11  65 2.13
  30  0.750  0.250  0.451-  62 2.11  52 2.11  59 2.11  60 2.11  43 2.11  66 2.12
  31  0.500  0.250  0.550-  65 2.11  50 2.11  66 2.11  57 2.11  59 2.13  63 2.15
  32  0.750  0.500  0.550-  65 2.11  58 2.11  66 2.11  49 2.11  60 2.13  64 2.15
  33  0.500  0.500  0.651-  48 2.12  55 2.12  63 2.12  64 2.12  65 2.14
  34  0.750  0.250  0.649-  66 2.11  56 2.11  47 2.11  64 2.11  63 2.11
  35  0.000  0.750  0.451-   3 2.11   5 2.11   6 2.11  13 2.11  22 2.11   7 2.12
  36  0.250  0.000  0.451-   4 2.11   5 2.11   6 2.11  14 2.11  21 2.11   8 2.12
  37  0.000  0.000  0.352-   5 2.11   4 2.11   3 2.11  11 2.11  20 2.11
  38  0.250  0.750  0.352-   6 2.11   4 2.11   3 2.11  12 2.11  19 2.11
  39  0.000  0.750  0.651-   9 2.11  10 2.11  26 2.11  17 2.11   7 2.15
  40  0.250  0.000  0.651-   9 2.11  10 2.11  18 2.11  25 2.11   8 2.15
  41  0.000  0.000  0.550-   9 2.11   8 2.11   7 2.11  15 2.11  24 2.11   5 2.12
  42  0.250  0.750  0.550-  10 2.11   8 2.11   7 2.11  16 2.11  23 2.11   6 2.12
  43  0.000  0.250  0.451-  11 2.11   5 2.11  13 2.11  14 2.11  30 2.11  15 2.12
  44  0.250  0.500  0.451-  12 2.11   6 2.11  13 2.11  14 2.11  29 2.11  16 2.13
  45  0.000  0.500  0.352-  13 2.11  11 2.11  12 2.11   3 2.11  28 2.11
  46  0.250  0.250  0.352-  14 2.11  11 2.11  12 2.11   4 2.11  27 2.11
  47  0.000  0.250  0.651-   9 2.11  18 2.11  34 2.11  17 2.11  15 2.15
  48  0.249  0.500  0.651-  17 2.10  10 2.11  18 2.11  33 2.12  16 2.15
  49  0.000  0.500  0.550-  17 2.11  15 2.11   7 2.11  16 2.11  32 2.11  13 2.12
  50  0.250  0.250  0.550-  18 2.11  15 2.11   8 2.11  16 2.11  31 2.11  14 2.12
  51  0.500  0.750  0.451-  19 2.11   6 2.11  21 2.11  22 2.11  29 2.11  23 2.13
  52  0.750  0.000  0.451-  20 2.11   5 2.11  21 2.11  22 2.11  30 2.11  24 2.12
  53  0.500  0.000  0.352-  21 2.11  19 2.11  20 2.11   4 2.11  27 2.11
  54  0.750  0.750  0.352-  22 2.11  19 2.11  20 2.11   3 2.11  28 2.11
  55  0.500  0.751  0.651-  25 2.10  10 2.11  26 2.11  33 2.12  23 2.15
  56  0.750  0.000  0.651-   9 2.11  26 2.11  34 2.11  25 2.11  24 2.15
  57  0.500  0.000  0.550-  25 2.11  24 2.11   8 2.11  23 2.11  31 2.11  21 2.12
  58  0.750  0.750  0.550-  26 2.11  24 2.11   7 2.11  32 2.11  23 2.11  22 2.12
  59  0.500  0.250  0.451-  27 2.11  21 2.11  14 2.11  29 2.11  30 2.11  31 2.13
  60  0.750  0.500  0.451-  28 2.11  22 2.11  13 2.11  29 2.11  30 2.11  32 2.13
  61  0.500  0.500  0.352-  29 2.11  19 2.11  27 2.11  28 2.11  12 2.11
  62  0.750  0.250  0.352-  30 2.11  20 2.11  27 2.11  28 2.11  11 2.11
  63  0.500  0.249  0.651-  25 2.10  18 2.11  34 2.11  33 2.12  31 2.15
  64  0.751  0.500  0.651-  17 2.10  26 2.11  34 2.11  33 2.12  32 2.15
  65  0.500  0.500  0.550-  16 2.11  23 2.11  31 2.11  32 2.11  29 2.13  33 2.14
  66  0.750  0.250  0.550-  34 2.11  24 2.11  15 2.11  32 2.11  31 2.11  30 2.12


IMPORTANT INFORMATION: All symmetrisations will be switched off!
NOSYMM: (Re-)initialisation of all symmetry stuff for point group C_1.


----------------------------------------------------------------------------------------

                                     Primitive cell                                     

  volume of cell :    1519.8199

  direct lattice vectors                    reciprocal lattice vectors
     8.440984654  0.000000000  0.000000000     0.118469591  0.000000000  0.000000000
     0.000000000  8.440984654  0.000000000     0.000000000  0.118469591  0.000000000
     0.000000000  0.000000000 21.330738491     0.000000000  0.000000000  0.046880702

  length of vectors
     8.440984654  8.440984654 21.330738491     0.118469591  0.118469591  0.046880702

  position of ions in fractional coordinates (direct lattice)
     0.500000000  0.500000000  0.765053803
     0.500000000  0.500000000  0.818817521
     0.000000000  0.750000000  0.351605267
     0.250000000  0.000000000  0.351605267
     0.000000000  0.000000000  0.450535089
     0.250000000  0.750000000  0.450535089
     0.000000000  0.749939268  0.550083239
     0.250060732  0.000000000  0.550083239
     0.000000000  0.000000000  0.648745309
     0.249858327  0.750141673  0.648569547
     0.000000000  0.250000000  0.351605267
     0.250000000  0.500000000  0.351605267
     0.000000000  0.500000000  0.450535089
     0.250000000  0.250000000  0.450535089
     0.000000000  0.250060732  0.550083239
     0.250378379  0.500000000  0.550219524
     0.000000000  0.500000000  0.648615280
     0.249858327  0.249858327  0.648569547
     0.500000000  0.750000000  0.351605267
     0.750000000  0.000000000  0.351605267
     0.500000000  0.000000000  0.450535089
     0.750000000  0.750000000  0.450535089
     0.500000000  0.749621621  0.550219524
     0.749939268  0.000000000  0.550083239
     0.500000000  0.000000000  0.648615280
     0.750141673  0.750141673  0.648569547
     0.500000000  0.250000000  0.351605267
     0.750000000  0.500000000  0.351605267
     0.500000000  0.500000000  0.450535089
     0.750000000  0.250000000  0.450535089
     0.500000000  0.250378379  0.550219524
     0.749621621  0.500000000  0.550219524
     0.500000000  0.500000000  0.650616960
     0.750141673  0.249858327  0.648569547
     0.000000000  0.750000000  0.450535089
     0.250000000  0.000000000  0.450535089
     0.000000000  0.000000000  0.351605267
     0.250000000  0.750000000  0.351605267
     0.000000000  0.750218533  0.650979255
     0.249781467  0.000000000  0.650979255
     0.000000000  0.000000000  0.549809890
     0.249945770  0.750054230  0.549859113
     0.000000000  0.250000000  0.450535089
     0.250000000  0.500000000  0.450535089
     0.000000000  0.500000000  0.351605267
     0.250000000  0.250000000  0.351605267
     0.000000000  0.249781467  0.650979255
     0.248822710  0.500000000  0.650882872
     0.000000000  0.500000000  0.549762666
     0.249945770  0.249945770  0.549859113
     0.500000000  0.750000000  0.450535089
     0.750000000  0.000000000  0.450535089
     0.500000000  0.000000000  0.351605267
     0.750000000  0.750000000  0.351605267
     0.500000000  0.751177290  0.650882872
     0.750218533  0.000000000  0.650979255
     0.500000000  0.000000000  0.549762666
     0.750054230  0.750054230  0.549859113
     0.500000000  0.250000000  0.450535089
     0.750000000  0.500000000  0.450535089
     0.500000000  0.500000000  0.351605267
     0.750000000  0.250000000  0.351605267
     0.500000000  0.248822710  0.650882872
     0.751177290  0.500000000  0.650882872
     0.500000000  0.500000000  0.550231357
     0.750054230  0.249945770  0.549859113

  ion indices of the primitive-cell ions
   primitive index   ion index
                 1           1
                 2           2
                 3           3
                 4           4
                 5           5
                 6           6
                 7           7
                 8           8
                 9           9
                10          10
                11          11
                12          12
                13          13
                14          14
                15          15
                16          16
                17          17
                18          18
                19          19
                20          20
                21          21
                22          22
                23          23
                24          24
                25          25
                26          26
                27          27
                28          28
                29          29
                30          30
                31          31
                32          32
                33          33
                34          34
                35          35
                36          36
                37          37
                38          38
                39          39
                40          40
                41          41
                42          42
                43          43
                44          44
                45          45
                46          46
                47          47
                48          48
                49          49
                50          50
                51          51
                52          52
                53          53
                54          54
                55          55
                56          56
                57          57
                58          58
                59          59
                60          60
                61          61
                62          62
                63          63
                64          64
                65          65
                66          66

----------------------------------------------------------------------------------------



 KPOINTS: pymatgen v2020.8.13 with grid density = 

Automatic generation of k-mesh.
 Grid dimensions read from file:
 generate k-points for:    2    2    1

 Generating k-lattice:

  Cartesian coordinates                     Fractional coordinates (reciprocal lattice)
     0.059234796  0.000000000  0.000000000     0.500000000  0.000000000  0.000000000
     0.000000000  0.059234796  0.000000000     0.000000000  0.500000000  0.000000000
     0.000000000  0.000000000  0.046880702     0.000000000  0.000000000  1.000000000

  Length of vectors
     0.059234796  0.059234796  0.046880702

  Shift w.r.t. Gamma in fractional coordinates (k-lattice)
     0.000000000  0.000000000  0.000000000

 
 Subroutine IBZKPT returns following result:
 ===========================================
 
 Found      4 irreducible k-points:
 
 Following reciprocal coordinates:
            Coordinates               Weight
  0.000000  0.000000  0.000000      1.000000
  0.500000  0.000000  0.000000      1.000000
  0.000000  0.500000  0.000000      1.000000
  0.500000  0.500000  0.000000      1.000000
 
 Following cartesian coordinates:
            Coordinates               Weight
  0.000000  0.000000  0.000000      1.000000
  0.059235  0.000000  0.000000      1.000000
  0.000000  0.059235  0.000000      1.000000
  0.059235  0.059235  0.000000      1.000000
 
 
 Subroutine IBZKPT_HF returns following result:
 ==============================================
 
 Found      4 k-points in 1st BZ
 the following      4 k-points will be used (e.g. in the exchange kernel)
 Following reciprocal coordinates:   # in IRBZ
  0.000000  0.000000  0.000000    0.25000000   1 t-inv F
  0.500000  0.000000  0.000000    0.25000000   2 t-inv F
  0.000000  0.500000  0.000000    0.25000000   3 t-inv F
  0.500000  0.500000  0.000000    0.25000000   4 t-inv F


--------------------------------------------------------------------------------------------------------




 Dimension of arrays:
   k-points           NKPTS =      4   k-points in BZ     NKDIM =      4   number of bands    NBANDS=    288
   number of dos      NEDOS =    301   number of ions     NIONS =     66
   non local maximal  LDIM  =      5   non local SUM 2l+1 LMDIM =     13
   total plane-waves  NPLWV = 882000
   max r-space proj   IRMAX =      1   max aug-charges    IRDMAX=  11635
   dimension x,y,z NGX =    70 NGY =   70 NGZ =  180
   dimension x,y,z NGXF=   140 NGYF=  140 NGZF=  360
   support grid    NGXF=   140 NGYF=  140 NGZF=  360
   ions per type =               1   1  32  32
   NGX,Y,Z   is equivalent  to a cutoff of  13.79, 13.79, 14.03 a.u.
   NGXF,Y,Z  is equivalent  to a cutoff of  27.57, 27.57, 28.06 a.u.

 SYSTEM =  MgO-rocksalt                            
 POSCAR =   C  O Mg  O                             

--------------------------------------------------------------------------------------------------------


  energy-cutoff  :      600.00
  volume of cell :     1519.82
      direct lattice vectors                 reciprocal lattice vectors
     8.440984654  0.000000000  0.000000000     0.118469591  0.000000000  0.000000000
     0.000000000  8.440984654  0.000000000     0.000000000  0.118469591  0.000000000
     0.000000000  0.000000000 21.330738491     0.000000000  0.000000000  0.046880702

  length of vectors
     8.440984654  8.440984654 21.330738491     0.118469591  0.118469591  0.046880702



 k-points in units of 2pi/SCALE and weight: pymatgen v2020.8.13 with grid density = 
   0.00000000  0.00000000  0.00000000       0.250
   0.05923480  0.00000000  0.00000000       0.250
   0.00000000  0.05923480  0.00000000       0.250
   0.05923480  0.05923480  0.00000000       0.250

 k-points in reciprocal lattice and weights: pymatgen v2020.8.13 with grid density = 
   0.00000000  0.00000000  0.00000000       0.250
   0.50000000  0.00000000  0.00000000       0.250
   0.00000000  0.50000000  0.00000000       0.250
   0.50000000  0.50000000  0.00000000       0.250

 position of ions in fractional coordinates (direct lattice) 
   0.50000000  0.50000000  0.76505380
   0.50000000  0.50000000  0.81881752
   0.00000000  0.75000000  0.35160527
   0.25000000  0.00000000  0.35160527
   0.00000000  0.00000000  0.45053509
   0.25000000  0.75000000  0.45053509
   0.00000000  0.74993927  0.55008324
   0.25006073  0.00000000  0.55008324
   0.00000000  0.00000000  0.64874531
   0.24985833  0.75014167  0.64856955
   0.00000000  0.25000000  0.35160527
   0.25000000  0.50000000  0.35160527
   0.00000000  0.50000000  0.45053509
   0.25000000  0.25000000  0.45053509
   0.00000000  0.25006073  0.55008324
   0.25037838  0.50000000  0.55021952
   0.00000000  0.50000000  0.64861528
   0.24985833  0.24985833  0.64856955
   0.50000000  0.75000000  0.35160527
   0.75000000  0.00000000  0.35160527
   0.50000000  0.00000000  0.45053509
   0.75000000  0.75000000  0.45053509
   0.50000000  0.74962162  0.55021952
   0.74993927  0.00000000  0.55008324
   0.50000000  0.00000000  0.64861528
   0.75014167  0.75014167  0.64856955
   0.50000000  0.25000000  0.35160527
   0.75000000  0.50000000  0.35160527
   0.50000000  0.50000000  0.45053509
   0.75000000  0.25000000  0.45053509
   0.50000000  0.25037838  0.55021952
   0.74962162  0.50000000  0.55021952
   0.50000000  0.50000000  0.65061696
   0.75014167  0.24985833  0.64856955
   0.00000000  0.75000000  0.45053509
   0.25000000  0.00000000  0.45053509
   0.00000000  0.00000000  0.35160527
   0.25000000  0.75000000  0.35160527
   0.00000000  0.75021853  0.65097926
   0.24978147  0.00000000  0.65097926
   0.00000000  0.00000000  0.54980989
   0.24994577  0.75005423  0.54985911
   0.00000000  0.25000000  0.45053509
   0.25000000  0.50000000  0.45053509
   0.00000000  0.50000000  0.35160527
   0.25000000  0.25000000  0.35160527
   0.00000000  0.24978147  0.65097926
   0.24882271  0.50000000  0.65088287
   0.00000000  0.50000000  0.54976267
   0.24994577  0.24994577  0.54985911
   0.50000000  0.75000000  0.45053509
   0.75000000  0.00000000  0.45053509
   0.50000000  0.00000000  0.35160527
   0.75000000  0.75000000  0.35160527
   0.50000000  0.75117729  0.65088287
   0.75021853  0.00000000  0.65097926
   0.50000000  0.00000000  0.54976267
   0.75005423  0.75005423  0.54985911
   0.50000000  0.25000000  0.45053509
   0.75000000  0.50000000  0.45053509
   0.50000000  0.50000000  0.35160527
   0.75000000  0.25000000  0.35160527
   0.50000000  0.24882271  0.65088287
   0.75117729  0.50000000  0.65088287
   0.50000000  0.50000000  0.55023136
   0.75005423  0.24994577  0.54985911

 position of ions in cartesian coordinates  (Angst):
   4.22049233  4.22049233 16.31916259
   4.22049233  4.22049233 17.46598241
   0.00000000  6.33073849  7.50000000
   2.11024616  0.00000000  7.50000000
   0.00000000  0.00000000  9.61024616
   2.11024616  6.33073849  9.61024616
   0.00000000  6.33022585 11.73368172
   2.11075880  0.00000000 11.73368172
   0.00000000  0.00000000 13.83821654
   2.10905031  6.33193435 13.83446740
   0.00000000  2.11024616  7.50000000
   2.11024616  4.22049233  7.50000000
   0.00000000  4.22049233  9.61024616
   2.11024616  2.11024616  9.61024616
   0.00000000  2.11075880 11.73368172
   2.11344006  4.22049233 11.73658877
   0.00000000  4.22049233 13.83544293
   2.10905031  2.10905031 13.83446740
   4.22049233  6.33073849  7.50000000
   6.33073849  0.00000000  7.50000000
   4.22049233  0.00000000  9.61024616
   6.33073849  6.33073849  9.61024616
   4.22049233  6.32754460 11.73658877
   6.33022585  0.00000000 11.73368172
   4.22049233  0.00000000 13.83544293
   6.33193435  6.33193435 13.83446740
   4.22049233  2.11024616  7.50000000
   6.33073849  4.22049233  7.50000000
   4.22049233  4.22049233  9.61024616
   6.33073849  2.11024616  9.61024616
   4.22049233  2.11344006 11.73658877
   6.32754460  4.22049233 11.73658877
   4.22049233  4.22049233 13.87814023
   6.33193435  2.10905031 13.83446740
   0.00000000  6.33073849  9.61024616
   2.11024616  0.00000000  9.61024616
   0.00000000  0.00000000  7.50000000
   2.11024616  6.33073849  7.50000000
   0.00000000  6.33258312 13.88586825
   2.10840153  0.00000000 13.88586825
   0.00000000  0.00000000 11.72785099
   2.10978841  6.33119624 11.72890095
   0.00000000  2.11024616  9.61024616
   2.11024616  4.22049233  9.61024616
   0.00000000  4.22049233  7.50000000
   2.11024616  2.11024616  7.50000000
   0.00000000  2.10840153 13.88586825
   2.10030867  4.22049233 13.88381232
   0.00000000  4.22049233 11.72684365
   2.10978841  2.10978841 11.72890095
   4.22049233  6.33073849  9.61024616
   6.33073849  0.00000000  9.61024616
   4.22049233  0.00000000  7.50000000
   6.33073849  6.33073849  7.50000000
   4.22049233  6.34067598 13.88381232
   6.33258312  0.00000000 13.88586825
   4.22049233  0.00000000 11.72684365
   6.33119624  6.33119624 11.72890095
   4.22049233  2.11024616  9.61024616
   6.33073849  4.22049233  9.61024616
   4.22049233  4.22049233  7.50000000
   6.33073849  2.11024616  7.50000000
   4.22049233  2.10030867 13.88381232
   6.34067598  4.22049233 13.88381232
   4.22049233  4.22049233 11.73684118
   6.33119624  2.10978841 11.72890095



--------------------------------------------------------------------------------------------------------

--------------------------------------- Iteration      FINAL  ---------------------------------------


--------------------OUTCAR has been truncated-------------------------


--------------------OUTCAR has been truncated-------------------------


--------------------OUTCAR has been truncated-------------------------


--------------------OUTCAR has been truncated-------------------------


--------------------OUTCAR has been truncated-------------------------


--------------------OUTCAR has been truncated-------------------------


--------------------OUTCAR has been truncated-------------------------


--------------------OUTCAR has been truncated-------------------------


--------------------OUTCAR has been truncated-------------------------


--------------------OUTCAR has been truncated-------------------------



  FORCE on cell =-STRESS in cart. coord.  units (eV):
  Direction    XX          YY          ZZ          XY          YZ          ZX
  --------------------------------------------------------------------------------------
  Alpha Z   907.96410   907.96410   907.96410
  Ewald  157648.86642157648.86642************     0.02900    -0.08931     0.08931
  Hartree168073.33392168073.33392************     0.02698    -0.09035     0.09035
  E(xc)   -2509.91578 -2509.91578 -2516.40678    -0.00001    -0.00001     0.00001
  Local  ************************335303.24513    -0.05581     0.17935    -0.17935
  n-local -2813.30994 -2813.30994 -2844.49389     0.00006    -0.00018     0.00017
  augment  1052.78951  1052.78951  1042.75668    -0.00001     0.00005    -0.00005
  Kinetic  7502.18604  7502.18604  7523.20605    -0.00038     0.00094    -0.00094
  Fock        0.00000     0.00000     0.00000     0.00000     0.00000     0.00000
  vdW       -21.67632   -21.67635   -16.57018    -0.00001     0.00001    -0.00001
  -------------------------------------------------------------------------------------
  Total     -25.98217   -25.98219    -1.60916    -0.00018     0.00052    -0.00052
  in kB     -27.39012   -27.39014    -1.69636    -0.00019     0.00055    -0.00055
  external pressure =      -18.83 kB  Pullay stress =        0.00 kB


 VOLUME and BASIS-vectors are now :
 -----------------------------------------------------------------------------
  energy-cutoff  :      600.00
  volume of cell :     1519.82
      direct lattice vectors                 reciprocal lattice vectors
     8.440984654  0.000000000  0.000000000     0.118469591  0.000000000  0.000000000
     0.000000000  8.440984654  0.000000000     0.000000000  0.118469591  0.000000000
     0.000000000  0.000000000 21.330738491     0.000000000  0.000000000  0.046880702

  length of vectors
     8.440984654  8.440984654 21.330738491     0.118469591  0.118469591  0.046880702


 FORCES acting on ions:
    Electron-Ion                     Ewald-Force                    Non-Local-Force
 -----------------------------------------------------------------------------------------------
   -.133E-01 0.133E-01 -.837E+03   0.144E-01 -.144E-01 0.811E+03   -.904E-03 0.904E-03 0.266E+02
   -.941E-02 0.941E-02 -.145E+04   0.937E-02 -.937E-02 0.151E+04   -.152E-03 0.152E-03 -.596E+02
   -.219E-01 -.128E+00 0.208E+04   0.194E-01 0.129E+00 -.207E+04   0.183E-02 -.218E-03 -.715E+01
   0.128E+00 0.219E-01 0.208E+04   -.129E+00 -.194E-01 -.207E+04   0.218E-03 -.183E-02 -.715E+01
   -.140E+00 0.140E+00 0.713E+03   0.130E+00 -.130E+00 -.714E+03   0.764E-02 -.764E-02 0.517E+00
   0.472E+00 -.472E+00 0.714E+03   -.467E+00 0.467E+00 -.715E+03   -.275E-02 0.275E-02 0.543E+00
   0.369E-04 -.284E+01 -.643E+03   -.283E-03 0.283E+01 0.643E+03   0.190E-03 0.140E-01 -.143E+00
   0.284E+01 -.369E-04 -.643E+03   -.283E+01 0.283E-03 0.643E+03   -.140E-01 -.190E-03 -.143E+00
   0.140E+00 -.140E+00 -.200E+04   -.130E+00 0.130E+00 0.200E+04   -.768E-02 0.768E-02 0.609E+01
   0.180E+02 -.180E+02 -.198E+04   -.182E+02 0.182E+02 0.198E+04   0.966E-01 -.966E-01 0.618E+01
   -.624E-01 0.128E+00 0.208E+04   0.615E-01 -.129E+00 -.207E+04   0.529E-03 0.218E-03 -.716E+01
   0.124E+00 -.219E-01 0.208E+04   -.121E+00 0.193E-01 -.207E+04   -.183E-02 0.183E-02 -.716E+01
   -.140E+00 -.140E+00 0.714E+03   0.130E+00 0.130E+00 -.715E+03   0.762E-02 0.764E-02 0.482E+00
   0.472E+00 0.472E+00 0.714E+03   -.467E+00 -.467E+00 -.715E+03   -.273E-02 -.275E-02 0.546E+00
   0.887E-02 0.284E+01 -.643E+03   -.101E-01 -.283E+01 0.644E+03   0.887E-03 -.140E-01 -.106E+00
   0.413E+01 0.121E-03 -.636E+03   -.405E+01 -.367E-03 0.636E+03   -.801E-01 0.190E-03 -.246E+00
   0.140E+00 0.140E+00 -.199E+04   -.130E+00 -.130E+00 0.198E+04   -.743E-02 -.762E-02 0.610E+01
   0.180E+02 0.180E+02 -.198E+04   -.182E+02 -.182E+02 0.198E+04   0.963E-01 0.966E-01 0.619E+01
   0.219E-01 -.124E+00 0.208E+04   -.193E-01 0.121E+00 -.207E+04   -.183E-02 0.183E-02 -.716E+01
   -.128E+00 0.624E-01 0.208E+04   0.129E+00 -.615E-01 -.207E+04   -.218E-03 -.529E-03 -.716E+01
   0.140E+00 0.140E+00 0.714E+03   -.130E+00 -.130E+00 -.715E+03   -.764E-02 -.762E-02 0.482E+00
   -.472E+00 -.472E+00 0.714E+03   0.467E+00 0.467E+00 -.715E+03   0.275E-02 0.273E-02 0.546E+00
   -.121E-03 -.413E+01 -.636E+03   0.367E-03 0.405E+01 0.636E+03   -.190E-03 0.801E-01 -.246E+00
   -.284E+01 -.887E-02 -.643E+03   0.283E+01 0.101E-01 0.644E+03   0.140E-01 -.887E-03 -.106E+00
   -.140E+00 -.140E+00 -.199E+04   0.130E+00 0.130E+00 0.198E+04   0.762E-02 0.743E-02 0.610E+01
   -.180E+02 -.180E+02 -.198E+04   0.182E+02 0.182E+02 0.198E+04   -.966E-01 -.963E-01 0.619E+01
   0.624E-01 0.124E+00 0.208E+04   -.615E-01 -.121E+00 -.207E+04   -.529E-03 -.183E-02 -.716E+01
   -.124E+00 -.624E-01 0.208E+04   0.121E+00 0.615E-01 -.207E+04   0.183E-02 0.529E-03 -.716E+01
   0.140E+00 -.140E+00 0.714E+03   -.130E+00 0.130E+00 -.715E+03   -.763E-02 0.763E-02 0.615E+00
   -.471E+00 0.471E+00 0.716E+03   0.467E+00 -.467E+00 -.716E+03   0.270E-02 -.270E-02 0.387E+00
   -.121E-01 0.413E+01 -.636E+03   0.131E-01 -.405E+01 0.637E+03   -.628E-03 -.801E-01 -.209E+00
   -.413E+01 0.121E-01 -.636E+03   0.405E+01 -.131E-01 0.637E+03   0.801E-01 0.628E-03 -.209E+00
   -.137E+00 0.137E+00 -.191E+04   0.128E+00 -.128E+00 0.191E+04   0.708E-02 -.708E-02 0.400E+01
   -.180E+02 0.180E+02 -.198E+04   0.182E+02 -.182E+02 0.197E+04   -.964E-01 0.964E-01 0.603E+01
   -.300E-01 -.404E+00 0.535E+03   0.266E-01 0.400E+00 -.535E+03   0.478E-02 0.667E-02 -.795E-01
   0.404E+00 0.300E-01 0.535E+03   -.400E+00 -.266E-01 -.535E+03   -.667E-02 -.478E-02 -.795E-01
   -.302E-01 0.302E-01 0.156E+04   0.280E-01 -.280E-01 -.156E+04   0.309E-02 -.309E-02 0.341E+01
   0.939E-01 -.939E-01 0.156E+04   -.931E-01 0.931E-01 -.156E+04   -.107E-02 0.107E-02 0.341E+01
   0.311E-01 -.733E+01 -.152E+04   -.266E-01 0.727E+01 0.153E+04   -.629E-02 0.531E-01 -.494E+01
   0.733E+01 -.311E-01 -.152E+04   -.727E+01 0.266E-01 0.153E+04   -.531E-01 0.629E-02 -.494E+01
   0.676E-04 -.676E-04 -.479E+03   -.527E-03 0.527E-03 0.478E+03   0.626E-03 -.626E-03 0.286E+00
   0.257E+01 -.257E+01 -.473E+03   -.256E+01 0.256E+01 0.473E+03   -.608E-02 0.608E-02 0.344E+00
   -.301E+00 0.404E+00 0.535E+03   0.279E+00 -.399E+00 -.535E+03   0.336E-01 -.667E-02 -.102E+00
   0.380E+00 -.300E-01 0.535E+03   -.406E+00 0.266E-01 -.535E+03   0.348E-01 0.478E-02 -.996E-01
   -.302E-01 -.302E-01 0.156E+04   0.280E-01 0.280E-01 -.156E+04   0.309E-02 0.309E-02 0.341E+01
   0.939E-01 0.939E-01 0.156E+04   -.931E-01 -.931E-01 -.156E+04   -.106E-02 -.107E-02 0.341E+01
   0.291E+00 0.733E+01 -.152E+04   -.269E+00 -.727E+01 0.153E+04   -.328E-01 -.531E-01 -.496E+01
   0.236E+02 0.310E-01 -.149E+04   -.233E+02 -.266E-01 0.150E+04   -.344E+00 -.613E-02 -.495E+01
   -.105E-03 -.624E-04 -.474E+03   -.392E-03 -.392E-03 0.473E+03   0.691E-03 0.625E-03 0.310E+00
   0.257E+01 0.257E+01 -.473E+03   -.256E+01 -.256E+01 0.473E+03   -.615E-02 -.606E-02 0.352E+00
   0.300E-01 -.380E+00 0.535E+03   -.266E-01 0.406E+00 -.535E+03   -.478E-02 -.348E-01 -.996E-01
   -.404E+00 0.301E+00 0.535E+03   0.399E+00 -.279E+00 -.535E+03   0.667E-02 -.336E-01 -.102E+00
   0.302E-01 0.302E-01 0.156E+04   -.280E-01 -.280E-01 -.156E+04   -.309E-02 -.309E-02 0.341E+01
   -.939E-01 -.939E-01 0.156E+04   0.931E-01 0.931E-01 -.156E+04   0.107E-02 0.106E-02 0.341E+01
   -.310E-01 -.236E+02 -.149E+04   0.266E-01 0.233E+02 0.150E+04   0.613E-02 0.344E+00 -.495E+01
   -.733E+01 -.291E+00 -.152E+04   0.727E+01 0.269E+00 0.153E+04   0.531E-01 0.328E-01 -.496E+01
   0.624E-04 0.105E-03 -.474E+03   0.392E-03 0.392E-03 0.473E+03   -.625E-03 -.691E-03 0.310E+00
   -.257E+01 -.257E+01 -.473E+03   0.256E+01 0.256E+01 0.473E+03   0.606E-02 0.615E-02 0.352E+00
   0.301E+00 0.380E+00 0.536E+03   -.278E+00 -.406E+00 -.535E+03   -.335E-01 0.348E-01 -.122E+00
   -.380E+00 -.301E+00 0.536E+03   0.406E+00 0.278E+00 -.535E+03   -.348E-01 0.335E-01 -.122E+00
   0.302E-01 -.302E-01 0.156E+04   -.280E-01 0.280E-01 -.156E+04   -.309E-02 0.309E-02 0.341E+01
   -.939E-01 0.939E-01 0.156E+04   0.931E-01 -.931E-01 -.156E+04   0.106E-02 -.106E-02 0.340E+01
   -.291E+00 0.236E+02 -.149E+04   0.269E+00 -.233E+02 0.150E+04   0.327E-01 -.343E+00 -.498E+01
   -.236E+02 0.291E+00 -.149E+04   0.233E+02 -.269E+00 0.150E+04   0.343E+00 -.327E-01 -.498E+01
   -.129E-02 0.129E-02 -.473E+03   0.172E-02 -.172E-02 0.474E+03   -.591E-03 0.591E-03 -.169E+00
   -.254E+01 0.254E+01 -.471E+03   0.253E+01 -.253E+01 0.471E+03   0.608E-02 -.608E-02 0.456E+00
 -----------------------------------------------------------------------------------------------
   0.165E-02 -.165E-02 0.516E+02   0.257E-12 -.162E-12 0.301E-11   -.165E-02 0.165E-02 -.516E+02


 POSITION                                       TOTAL-FORCE (eV/Angst)
 -----------------------------------------------------------------------------------
      4.22049      4.22049     16.31916         0.000151     -0.000151      0.009592
      4.22049      4.22049     17.46598        -0.000190      0.000190      0.010694
      0.00000      6.33074      7.50000        -0.000693      0.000032      0.337828
      2.11025      0.00000      7.50000        -0.000032      0.000693      0.337828
      0.00000      0.00000      9.61025        -0.002812      0.002812      0.069632
      2.11025      6.33074      9.61025         0.001447     -0.001447      0.071145
      0.00000      6.33023     11.73368        -0.000055      0.000676     -0.008701
      2.11076      0.00000     11.73368        -0.000676      0.000055     -0.008702
      0.00000      0.00000     13.83822         0.002738     -0.002738     -0.005063
      2.10905      6.33193     13.83447        -0.000542      0.000542     -0.001188
      0.00000      2.11025      7.50000        -0.000391     -0.000032      0.339987
      2.11025      4.22049      7.50000         0.000491     -0.000693      0.337907
      0.00000      4.22049      9.61025        -0.002807     -0.002811      0.077995
      2.11025      2.11025      9.61025         0.001444      0.001448      0.070273
      0.00000      2.11076     11.73368        -0.000355     -0.000674     -0.020439
      2.11344      4.22049     11.73659        -0.003880     -0.000054     -0.005148
      0.00000      4.22049     13.83544         0.002647      0.002736     -0.004248
      2.10905      2.10905     13.83447        -0.000430     -0.000523     -0.002811
      4.22049      6.33074      7.50000         0.000693     -0.000491      0.337907
      6.33074      0.00000      7.50000         0.000032      0.000391      0.339987
      4.22049      0.00000      9.61025         0.002811      0.002807      0.077995
      6.33074      6.33074      9.61025        -0.001448     -0.001444      0.070273
      4.22049      6.32754     11.73659         0.000054      0.003880     -0.005145
      6.33023      0.00000     11.73368         0.000674      0.000355     -0.020438
      4.22049      0.00000     13.83544        -0.002736     -0.002647     -0.004248
      6.33193      6.33193     13.83447         0.000523      0.000430     -0.002813
      4.22049      2.11025      7.50000         0.000391      0.000491      0.340063
      6.33074      4.22049      7.50000        -0.000491     -0.000391      0.340063
      4.22049      4.22049      9.61025         0.002807     -0.002807      0.084430
      6.33074      2.11025      9.61025        -0.001443      0.001443      0.056924
      4.22049      2.11344     11.73659         0.000354     -0.003885     -0.016781
      6.32754      4.22049     11.73659         0.003885     -0.000354     -0.016778
      4.22049      4.22049     13.87814        -0.002558      0.002558      0.003609
      6.33193      2.10905     13.83447         0.000424     -0.000424     -0.017774
      0.00000      6.33074      9.61025         0.001376      0.001990      0.079392
      2.11025      0.00000      9.61025        -0.001990     -0.001376      0.079392
      0.00000      0.00000      7.50000         0.000864     -0.000864     -0.500960
      2.11025      6.33074      7.50000        -0.000303      0.000303     -0.499750
      0.00000      6.33258     13.88587        -0.001743     -0.002791      0.003717
      2.10840      0.00000     13.88587         0.002791      0.001743      0.003717
      0.00000      0.00000     11.72785         0.000168     -0.000168      0.014827
      2.10979      6.33120     11.72890         0.003317     -0.003317      0.005531
      0.00000      2.11025      9.61025         0.010668     -0.001989      0.071671
      2.11025      4.22049      9.61025         0.008919      0.001376      0.088438
      0.00000      4.22049      7.50000         0.000863      0.000863     -0.500807
      2.11025      2.11025      7.50000        -0.000301     -0.000303     -0.501367
      0.00000      2.10840     13.88587        -0.010642      0.002799     -0.003070
      2.10031      4.22049     13.88381        -0.001478     -0.001711      0.004118
      0.00000      4.22049     11.72684         0.000195      0.000171      0.012852
      2.10979      2.10979     11.72890         0.003291      0.003317      0.007562
      4.22049      6.33074      9.61025        -0.001376     -0.008919      0.088438
      6.33074      0.00000      9.61025         0.001989     -0.010668      0.071671
      4.22049      0.00000      7.50000        -0.000863     -0.000863     -0.500807
      6.33074      6.33074      7.50000         0.000303      0.000301     -0.501367
      4.22049      6.34068     13.88381         0.001711      0.001478      0.004115
      6.33258      0.00000     13.88587        -0.002799      0.010642     -0.003070
      4.22049      0.00000     11.72684        -0.000171     -0.000195      0.012852
      6.33120      6.33120     11.72890        -0.003316     -0.003291      0.007562
      4.22049      2.11025      9.61025        -0.010651      0.008921      0.080732
      6.33074      4.22049      9.61025        -0.008921      0.010651      0.080732
      4.22049      4.22049      7.50000        -0.000862      0.000862     -0.501494
      6.33074      2.11025      7.50000         0.000302     -0.000302     -0.502380
      4.22049      2.10031     13.88381         0.010655     -0.001437     -0.002862
      6.34068      4.22049     13.88381         0.001437     -0.010655     -0.002865
      4.22049      4.22049     11.73684        -0.000160      0.000160      0.006674
      6.33120      2.10979     11.71890        -0.003296      0.003296      0.122957
 -----------------------------------------------------------------------------------
    total drift:                               -0.000005      0.000004      0.000677


--------------------------------------------------------------------------------------------------------



  FREE ENERGIE OF THE ION-ELECTRON SYSTEM (eV)
  ---------------------------------------------------
  free  energy   TOTEN  =      -386.04624317 eV

  energy  without entropy=     -386.04624317  energy(sigma->0) =     -386.04624317

 d Force =-0.1172129E-04[-0.246E-02, 0.244E-02]  d Energy =-0.1399711E-04 0.228E-05
 d Force =-0.9457051E+01[-0.942E+01,-0.950E+01]  d Ewald  =-0.9457053E+01 0.277E-05


--------------------------------------------------------------------------------------------------------


    POTLOK:  cpu time      0.5346: real time      0.5346


--------------------------------------------------------------------------------------------------------


 Finite differences progress:
  Degree of freedom: 102/102
  Displacement:        2/  2
  Total:             204/204

 SECOND DERIVATIVES (NOT SYMMETRIZED)
 ------------------------------------
               1X          1Y          1Z          2X          2Y          2Z          7X          7Y          7Z          8X          8Y          8Z          9X          9Y          9Z         10X         10Y         10Z         15X         15Y         15Z         16X         16Y         16Z         17X         17Y         17Z         18X         18Y         18Z         23X         23Y         23Z         24X         24Y         24Z         25X         25Y         25Z         26X         26Y         26Z         31X         31Y         31Z         32X         32Y         32Z         33X         33Y         33Z         34X         34Y         34Z         39X         39Y         39Z         40X         40Y         40Z         41X         41Y         41Z         42X         42Y         42Z         47X         47Y         47Z         48X         48Y         48Z         49X         49Y         49Z         50X         50Y         50Z         55X         55Y         55Z         56X         56Y         56Z         57X         57Y         57Z         58X         58Y         58Z         63X         63Y         63Z         64X         64Y         64Z         65X         65Y         65Z         66X         66Y         66Z 
  1X    -1.837663   -0.000004    0.002294    0.841627   -0.000016    0.002968   -0.019183    0.000045   -0.000073    0.000489    0.000004    0.005319    0.008246   -0.000006   -0.000098   -0.003427    0.089044    0.006281   -0.019191   -0.000040   -0.000064    0.017154    0.000005   -0.082567   -0.181890   -0.000004    0.000172   -0.003446   -0.089060    0.006273    0.014278   -0.000011   -0.000182    0.000495    0.000006   -0.005415   -0.014344   -0.000002    0.000024   -0.003535   -0.089073   -0.005820    0.014299    0.000012   -0.000194    0.017088   -0.000018    0.082111    0.502986   -0.000018    0.000219   -0.003555    0.089110   -0.005819    0.039927    0.000017   -0.000126   -0.004043    0.000003   -0.010788    0.004508    0.000003   -0.000083   -0.003224   -0.021148    0.015428    0.039913    0.000006   -0.000127    0.353340    0.000006    0.347732    0.085055   -0.000009   -0.000148   -0.003237    0.021143    0.015429   -0.071105   -0.000003   -0.000187   -0.004059    0.000012    0.010484   -0.004768    0.000002   -0.000093   -0.003229    0.021186   -0.015636   -0.071051   -0.000006   -0.000204    0.353299   -0.000012   -0.348068   -0.035420   -0.000004   -0.000075   -0.003236   -0.021182   -0.015623
  1Y    -0.000968   -1.837507    0.001317    0.004302    0.838322    0.002189   -0.000279    0.000502   -0.005453   -0.000090   -0.019029   -0.000119   -0.000324    0.008479   -0.000031    0.088735   -0.002920   -0.006798   -0.000287    0.000524    0.005397   -0.000033    0.014257   -0.000496   -0.001211   -0.014467    0.000012   -0.088961   -0.003853    0.005676    0.000142    0.017169    0.082127    0.000002   -0.019023   -0.000000    0.000236   -0.181291    0.000179   -0.088982   -0.003877   -0.005325    0.000152    0.017222   -0.082404   -0.000031    0.014244    0.000213    0.001690    0.502159    0.000218    0.088672   -0.002821    0.007279   -0.000023   -0.004065    0.010543   -0.000029    0.040002    0.000006   -0.000041    0.004504   -0.000052   -0.021227   -0.003206   -0.015528   -0.000040   -0.004068   -0.010640   -0.000143   -0.071365   -0.000000   -0.000187   -0.004551   -0.000055    0.021144   -0.003265    0.015381   -0.000196    0.353751   -0.348784   -0.000022    0.040009   -0.000043   -0.000043    0.085161   -0.000084    0.021185   -0.003250   -0.015522   -0.000207    0.353665    0.348444   -0.000066   -0.071374   -0.000206   -0.000031   -0.035376   -0.000054   -0.021197   -0.003199    0.015414
  1Z    -0.000014   -0.001071 -111.170381    0.000025   -0.003183  110.595009   -0.000002   -0.056289   -0.089190    0.056366    0.000359   -0.089095    0.000004    0.000489   -0.217162    0.151949   -0.152361   -0.233108    0.000004    0.056444   -0.088998   -0.019426   -0.000218    0.091759    0.000004   -0.000387   -0.280973    0.153120    0.152773   -0.231248   -0.000001    0.019477    0.091320   -0.056369    0.000364   -0.089097   -0.000003    0.001448   -0.280949   -0.151956   -0.152374   -0.233104    0.000003   -0.019405    0.092218    0.019427   -0.000213    0.091767    0.000032   -0.002312    1.021520   -0.153126    0.152759   -0.231260   -0.000005    0.098092    0.232953   -0.098039    0.000236    0.232938   -0.000000    0.000164    0.096989   -0.059054    0.059171    0.011037    0.000001   -0.097911    0.232908   -0.051965    0.000063    0.052356   -0.000004   -0.000113   -0.021660   -0.059130   -0.059002    0.011256   -0.000006    0.052041    0.052298    0.098039    0.000240    0.232943   -0.000003    0.000165   -0.021737    0.059065    0.059156    0.011038   -0.000006   -0.051940    0.052162    0.051952    0.000080    0.052321    0.000006    0.000062   -0.017460    0.059129   -0.059006    0.011256
  2X     0.831152   -0.000012    0.003964   -0.303323   -0.000009   -0.000638    0.017996    0.000184   -0.000144   -0.001083    0.000000   -0.001397    0.000746    0.000003   -0.000179    0.004298   -0.090850    0.021974    0.017999   -0.000184   -0.000143   -0.011844   -0.000004    0.085194    0.181782   -0.000000    0.000202    0.004289    0.090855    0.021971   -0.015916   -0.000191   -0.000302   -0.000820    0.000002    0.001144    0.000806    0.000013    0.000303    0.004073    0.090810   -0.021322   -0.015914    0.000190   -0.000295   -0.012290    0.000002   -0.085749   -0.397466    0.000006    0.003685    0.004067   -0.090815   -0.021332   -0.056824    0.000170   -0.000038    0.000838    0.000004   -0.000347   -0.008558    0.000002   -0.000238    0.001907    0.022011   -0.019141   -0.056821   -0.000161   -0.000045   -0.150144   -0.000000   -0.222127   -0.074923   -0.000005   -0.000499    0.001902   -0.022004   -0.019131    0.077324   -0.000347   -0.000507    0.001120    0.000010    0.000273    0.006874   -0.000004   -0.000465    0.001813   -0.022097    0.018878    0.077331    0.000320   -0.000518   -0.150926    0.000002    0.221135    0.041965   -0.000003    0.000808    0.001818    0.022095    0.018885
  2Y     0.003797    0.831819    0.000622    0.001660   -0.305390   -0.000468   -0.000222   -0.000969    0.001277   -0.000121    0.018046    0.000009   -0.000223    0.000781   -0.000091   -0.091103    0.004412   -0.022302   -0.000205   -0.000899   -0.001256   -0.000067   -0.015924   -0.000144   -0.000624    0.000820   -0.000007    0.090735    0.004062    0.021211    0.000013   -0.012103   -0.085487   -0.000046    0.018025   -0.000018    0.000039    0.181889   -0.000165    0.090740    0.003830   -0.021228   -0.000013   -0.012014    0.085548   -0.000065   -0.015896    0.000100    0.001202   -0.397523   -0.000021   -0.091012    0.004548    0.022032   -0.000045    0.001007    0.000327   -0.000084   -0.056733    0.000035   -0.000082   -0.008530   -0.000004    0.021956    0.001900    0.019002   -0.000005    0.000976   -0.000269   -0.000090    0.077296   -0.000019   -0.000175    0.006872   -0.000018   -0.022061    0.001858   -0.018949   -0.000178   -0.150486    0.221517   -0.000064   -0.056771    0.000029   -0.000108   -0.074800    0.000002   -0.022104    0.001848    0.018984   -0.000202   -0.150403   -0.221493   -0.000117    0.077311   -0.000020   -0.000094    0.041904    0.000035    0.021928    0.001900   -0.019009
  2Z    -0.000007    0.006472  110.584913    0.000029    0.006193 -110.992538    0.000000    0.051806    0.083021   -0.051972   -0.000346    0.083037    0.000000   -0.000379    0.196868   -0.138318    0.138433    0.232601   -0.000000   -0.052198    0.083034    0.007222   -0.000095   -0.079101    0.000000   -0.000042    0.262394   -0.138946   -0.138944    0.231434   -0.000003   -0.007358   -0.078888    0.051974   -0.000349    0.083035    0.000000   -0.000924    0.262433    0.138315    0.138430    0.232608   -0.000001    0.007026   -0.079268   -0.007224   -0.000095   -0.079100    0.000003    0.001166   -0.482293    0.138945   -0.138941    0.231437    0.000001   -0.093354   -0.215137    0.093168   -0.000121   -0.215116   -0.000003   -0.000212   -0.088975    0.053628   -0.053816   -0.015277    0.000000    0.092983   -0.215098    0.251982   -0.000365    0.031453   -0.000001   -0.000201    0.024598    0.053626    0.053439   -0.015243   -0.000004   -0.252043    0.031234   -0.093171   -0.000122   -0.215114   -0.000002   -0.000291    0.024602   -0.053627   -0.053816   -0.015275   -0.000000    0.251820    0.031650   -0.251977   -0.000367    0.031443   -0.000001   -0.000236    0.044041   -0.053627    0.053442   -0.015245
  7X    -0.019913   -0.000010    0.008199    0.017324   -0.000018   -0.007824  -11.664780   -0.000008   -0.000434    0.662512    1.591839    0.007302   -0.450839    0.000066    0.000927    0.679502   -0.003343    1.609114   -0.000555    0.000005   -0.000104    0.662447   -1.589459    0.014389   -0.444428   -0.000054    0.000395   -0.006233    0.004734   -0.041462    1.537220    0.000118    0.000199    0.662306   -1.591712   -0.007529    0.255177    0.000001    0.000329    0.679687    0.003644   -1.609113    0.050253   -0.000106    0.000200    0.662584    1.589354   -0.013999    0.237261   -0.000011   -0.001767   -0.005948   -0.005034    0.041393    1.393140    0.000007    0.000399   -0.034341   -0.262386   -0.264357    1.292432    0.000298   -0.000014    1.453702    0.002475   -0.034682    0.141015   -0.000018    0.000089   -0.034726    0.264660   -0.274119    1.288692   -0.000314    0.000020    0.042383   -0.001304   -0.005686   -0.605010    0.000185   -0.000062   -0.034435    0.262502    0.264694   -0.588405   -0.000011    0.000017    1.453014   -0.002527    0.034697   -0.158553   -0.000185   -0.000025   -0.034465   -0.264767    0.274151   -0.586791    0.000017   -0.000015    0.042339    0.001363    0.005718
  7Y    -0.000084   -0.001702   -0.056270   -0.000009   -0.002677    0.052034   -0.001636  -11.569547    0.004540    1.592593    0.662211    0.008813   -0.000122    0.672639    1.600730    0.002163   -0.454141    0.003998   -0.000069    1.536045    0.000795   -1.588054    0.657806   -0.011222   -0.000134    0.676908   -1.601368    0.000458    0.253938    0.002965   -0.000862   -0.002550    0.000878   -1.591858    0.662240    0.008813   -0.000173   -0.007533   -0.040311   -0.001202   -0.454139    0.003773   -0.000143    0.050474    0.000873    1.588831    0.657745   -0.011257   -0.000194   -0.007486    0.041820   -0.000398    0.253939    0.002995   -0.000243    1.391109   -0.003075   -0.262128   -0.035696   -0.266545   -0.000359    1.432354   -0.035175   -0.000353    1.289879   -0.000506   -0.000037   -0.608245   -0.003833    0.260461   -0.036457    0.266743   -0.000372    1.454232    0.034837   -0.000481   -0.589841   -0.000712   -0.000001    0.136172   -0.000743    0.262558   -0.035929   -0.266794   -0.000034    0.041172   -0.005478    0.000595    1.289895   -0.000463   -0.000064   -0.158117   -0.000483   -0.260013   -0.036216    0.266504   -0.000028    0.041731    0.004415    0.000850   -0.589825   -0.000720
  7Z     0.000002   -0.005680   -0.089761    0.000001    0.001192    0.081666   -0.000026    0.004628  -10.983829   -0.009180   -0.007241   -0.832959   -0.000006    1.615345    0.230754    1.621415    0.001390    0.236871    0.000003   -0.001558   -0.383123   -0.005335    0.006403   -0.833427   -0.000008   -1.621629    0.236443   -0.014247   -0.002054   -0.269013   -0.000008   -0.001233   -0.385330    0.009189   -0.007250   -0.832944    0.000005   -0.012069   -0.267587   -1.621437    0.001400    0.236882    0.000004    0.000618   -0.456616    0.005341    0.006395   -0.833416    0.000000    0.012383   -0.269802    0.014250   -0.002056   -0.269026   -0.000019   -0.001716    1.166287   -0.337961   -0.339939    0.313212   -0.000002    0.010054    1.671954    0.010211   -0.000441    1.673655   -0.000000    0.000887    0.351995   -0.336057    0.345068    0.315661   -0.000014   -0.010191    1.673267    0.004234    0.000313    0.499738    0.000011    0.000728    0.353892    0.337967   -0.339958    0.313198    0.000002    0.003237    0.500077   -0.010205   -0.000411    1.673668    0.000001   -0.000774    0.261641    0.336068    0.345080    0.315651   -0.000001   -0.002943    0.500130   -0.004235    0.000319    0.499745
  8X    -0.001693   -0.000057    0.056142   -0.002667   -0.000047   -0.052381    0.661984    1.591811   -0.009531  -11.568691   -0.000006   -0.005282    0.672305   -0.000268   -1.600428   -0.454388    0.001645   -0.003983    0.662039   -1.591858   -0.008888   -0.002689    0.000039   -0.000894   -0.007479    0.000337    0.040153   -0.453914   -0.001678   -0.003879    0.657692   -1.588020    0.011130    1.536049   -0.000045   -0.000760    0.676641    0.000166    1.600919    0.254098    0.000436   -0.003095    0.657692    1.587996    0.011648    0.050382    0.000059   -0.000894   -0.007431   -0.000146   -0.041685    0.253626   -0.000447   -0.002999   -0.035722   -0.262354    0.266739    1.391600    0.000496    0.003685    1.432104   -0.000001    0.034482    1.289626   -0.000710   -0.000198   -0.035716    0.262343    0.266817    0.136554   -0.000465    0.001139    0.041320    0.000007    0.004856    1.289697    0.000697    0.000781   -0.036137    0.260195   -0.266285   -0.608716    0.000491    0.004191    1.454632    0.000052   -0.034482   -0.589872   -0.000597    0.000024   -0.036139   -0.260190   -0.266632   -0.158522   -0.000474    0.000889    0.041867   -0.000060   -0.004121   -0.589923    0.000583    0.001009
  8Y     0.000000   -0.020745   -0.000028   -0.000002    0.016521    0.000005    1.592416    0.662114   -0.007364   -0.001512  -11.615688   -0.000456    0.000513   -0.452191    0.000026   -0.003643    0.679542   -1.609239   -1.591462    0.662433    0.007360    0.000000    1.535795   -0.000012    0.000038    0.254415    0.000011    0.003365    0.679497    1.609164   -1.589239    0.662633   -0.014178   -0.001114   -0.001508    0.000003    0.000445   -0.445743   -0.000095    0.004634   -0.006867    0.041352    1.589967    0.662237    0.014161   -0.000249    0.049461   -0.000006    0.000006    0.236482   -0.000018   -0.005162   -0.006879   -0.041346   -0.261903   -0.034675    0.264168   -0.000531    1.391747   -0.000111    0.000449    1.290938    0.000098    0.001848    1.452886    0.034795    0.262587   -0.035177   -0.264567    0.000089   -0.605951    0.000034    0.000159   -0.589459    0.000018   -0.003181    1.452660   -0.034776    0.264827   -0.035368    0.274179   -0.000065    0.140275    0.000015    0.000249    1.287156   -0.000054   -0.001507    0.041648    0.005698   -0.264181   -0.034882   -0.273802   -0.000014   -0.159271    0.000009    0.000148   -0.587798   -0.000002    0.001157    0.041649   -0.005702
  8Z     0.005665   -0.000125   -0.089847   -0.001214   -0.000050    0.081590    0.007463    0.009195   -0.833110   -0.004899   -0.000439  -10.983567   -1.615333   -0.000101    0.231126   -0.001483   -1.621356    0.237035    0.007382   -0.008532   -0.833059    0.001014   -0.000811   -0.385323    0.012194   -0.000167   -0.267713   -0.001471    1.622207    0.237343   -0.006139    0.005922   -0.833526    0.000776   -0.000168   -0.383135    1.622266   -0.000100    0.236480    0.001747    0.014323   -0.269125   -0.006031   -0.005206   -0.833429   -0.000934   -0.000250   -0.456660   -0.012300   -0.000210   -0.269873    0.001725   -0.014218   -0.269106    0.340267    0.338148    0.312953    0.001513    0.000024    1.166648   -0.010353   -0.000071    1.671985    0.000053   -0.010561    1.673681    0.340311   -0.337890    0.313102   -0.000852   -0.000019    0.353873   -0.002943    0.000065    0.500104    0.000058    0.010270    1.673751   -0.344813    0.336126    0.315720   -0.000992   -0.000171    0.351917    0.010336   -0.000111    1.673428   -0.000319   -0.004001    0.499787   -0.344825   -0.335855    0.315863    0.000640   -0.000171    0.261680    0.003221    0.000056    0.500189   -0.000321    0.004414    0.499814
  9X     0.008447    0.000003   -0.000015    0.000924    0.000002   -0.000086   -0.450370    0.000037    0.000084    0.673236   -0.000019   -1.616355  -10.762003    0.000001   -0.000218    0.691948   -1.697940   -0.156216   -0.450372   -0.000034    0.000078   -0.005713   -0.000005    0.013848    0.009125    0.000002   -0.000008    0.691942    1.697941   -0.156228    0.255151    0.000040    0.000067    0.673284   -0.000008    1.615037    1.660088   -0.000015    0.000114    0.691962    1.697943    0.156311    0.255158   -0.000031    0.000053   -0.005711   -0.000003   -0.013726    0.045686    0.000003    0.000075    0.691961   -1.697932    0.156310    1.491319   -0.000258    0.000067    1.566697    0.000020    0.198949    1.308063   -0.000005   -0.000176   -0.030497    0.277790    0.273116    1.491346    0.000274    0.000037    0.052639    0.000001   -0.004207    0.108773   -0.000003   -0.000056   -0.030493   -0.277777    0.273111   -0.738045   -0.000174    0.000066    1.566669   -0.000038   -0.198951   -0.608286   -0.000004   -0.000130   -0.030534   -0.277838   -0.273205   -0.738012    0.000196    0.000057    0.052701   -0.000003    0.004155   -0.127191   -0.000002   -0.000071   -0.030542    0.277840   -0.273214
  9Y    -0.000080    0.008402    0.000010    0.000022    0.000883   -0.000001    0.000045    0.673381    1.615248    0.000257   -0.450284   -0.000095   -0.001578  -10.764475   -0.000430   -1.697869    0.691987    0.156450    0.000036    0.673443   -1.615303    0.000110    0.255301   -0.000003   -0.000077    1.659644   -0.000005    1.698448    0.692305   -0.156348   -0.000155   -0.005693   -0.013994    0.000256   -0.450283    0.000127   -0.000826    0.009295    0.000018    1.698439    0.692340    0.156334   -0.000153   -0.005685    0.014009    0.000114    0.255299    0.000011   -0.000116    0.045676    0.000000   -1.697902    0.691990   -0.156452    0.000022    1.566626   -0.198889   -0.000259    1.491723    0.000387   -0.000098    1.308531   -0.000045    0.278198   -0.030643   -0.273328   -0.000026    1.566634    0.198891    0.000276   -0.738245    0.000047   -0.000186   -0.608432    0.000028   -0.277769   -0.030576    0.273260    0.000090    0.052676    0.004350   -0.000385    1.491726   -0.000368    0.000164    0.108829    0.000021   -0.277811   -0.030596   -0.273252    0.000117    0.052656   -0.004314    0.000258   -0.738253   -0.000016   -0.000132   -0.127218    0.000013    0.278153   -0.030632    0.273339
[...]
      0.000000  4.220492 13.835443     0.112148    0.204595   -0.000467  
      2.109050  2.109050 13.834467     0.113256    0.205172   -0.000070  
      4.220492  6.330738  7.500000            0           0           0  
      6.330738  0.000000  7.500000            0           0           0  
      4.220492  0.000000  9.610246            0           0           0  
      6.330738  6.330738  9.610246            0           0           0  
      4.220492  6.327545 11.736589     0.072017    0.131098   -0.000811  
      6.330226  0.000000 11.733682     0.071830    0.130572   -0.000420  
      4.220492  0.000000 13.835443     0.112795    0.203447   -0.000564  
      6.331934  6.331934 13.834467     0.113268    0.205221   -0.000880  
      4.220492  2.110246  7.500000            0           0           0  
      6.330738  4.220492  7.500000            0           0           0  
      4.220492  4.220492  9.610246            0           0           0  
      6.330738  2.110246  9.610246            0           0           0  
      4.220492  2.113440 11.736589     0.071994    0.130427   -0.000672  
      6.327545  4.220492 11.736589     0.072338    0.130734   -0.000746  
      4.220492  4.220492 13.878140     0.117079    0.212383   -0.003529  
      6.331934  2.109050 13.834467     0.112887    0.204952   -0.000507  
      0.000000  6.330738  9.610246            0           0           0  
      2.110246  0.000000  9.610246            0           0           0  
      0.000000  0.000000  7.500000            0           0           0  
      2.110246  6.330738  7.500000            0           0           0  
      0.000000  6.332583 13.885868     0.087478    0.158640   -0.000491  
      2.108402  0.000000 13.885868     0.087350    0.158825   -0.000144  
      0.000000  0.000000 11.727851     0.055251    0.100400   -0.000156  
      2.109788  6.331196 11.728901     0.054918    0.100270   -0.000473  
      0.000000  2.110246  9.610246            0           0           0  
      2.110246  4.220492  9.610246            0           0           0  
      0.000000  4.220492  7.500000            0           0           0  
      2.110246  2.110246  7.500000            0           0           0  
      0.000000  2.108402 13.885868     0.087484    0.158615   -0.000148  
      2.100309  4.220492 13.883812     0.087756    0.158974    0.000871  
      0.000000  4.220492 11.726844     0.055773    0.099989   -0.000414  
      2.109788  2.109788 11.728901     0.055558    0.100538    0.000189  
      4.220492  6.330738  9.610246            0           0           0  
      6.330738  0.000000  9.610246            0           0           0  
      4.220492  0.000000  7.500000            0           0           0  
      6.330738  6.330738  7.500000            0           0           0  
      4.220492  6.340676 13.883812     0.087623    0.160279   -0.004716  
      6.332583  0.000000 13.885868     0.087377    0.158803   -0.000393  
      4.220492  0.000000 11.726844     0.055049    0.101298   -0.000472  
      6.331196  6.331196 11.728901     0.055589    0.100595   -0.000859  
      4.220492  2.110246  9.610246            0           0           0  
      6.330738  4.220492  9.610246            0           0           0  
      4.220492  4.220492  7.500000            0           0           0  
      6.330738  2.110246  7.500000            0           0           0  
      4.220492  2.100309 13.883812     0.087584    0.159585    0.002232  
      6.340676  4.220492 13.883812     0.088430    0.158997   -0.003030  
      4.220492  4.220492 11.736841     0.055325    0.100409   -0.000691  
      6.331196  2.109788 11.728901     0.055031    0.100207   -0.000204  

 100 f  =    2.751211 THz    17.286367 2PiTHz   91.770515 cm-1    11.378089 meV
             X         Y         Z           dx          dy          dz
      4.220492  4.220492 16.319163    -0.002598   -0.001657   -0.639029  
      4.220492  4.220492 17.465982     0.004156    0.004741   -0.738040  
      0.000000  6.330738  7.500000            0           0           0  
      2.110246  0.000000  7.500000            0           0           0  
      0.000000  0.000000  9.610246            0           0           0  
      2.110246  6.330738  9.610246            0           0           0  
      0.000000  6.330226 11.733682    -0.004581    0.000511   -0.015852  
      2.110759  0.000000 11.733682    -0.007594   -0.002539   -0.015900  
      0.000000  0.000000 13.838217    -0.007222   -0.003990   -0.017043  
      2.109050  6.331934 13.834467    -0.008171   -0.003092   -0.033440  
      0.000000  2.110246  7.500000            0           0           0  
      2.110246  4.220492  7.500000            0           0           0  
      0.000000  4.220492  9.610246            0           0           0  
      2.110246  2.110246  9.610246            0           0           0  
      0.000000  2.110759 11.733682    -0.004593   -0.005549   -0.015870  
      2.113440  4.220492 11.736589    -0.015650   -0.002521   -0.031282  
      0.000000  4.220492 13.835443    -0.007177   -0.003963   -0.034495  
      2.109050  2.109050 13.834467    -0.008182   -0.004913   -0.033584  
      4.220492  6.330738  7.500000            0           0           0  
      6.330738  0.000000  7.500000            0           0           0  
      4.220492  0.000000  9.610246            0           0           0  
      6.330738  6.330738  9.610246            0           0           0  
      4.220492  6.327545 11.736589    -0.004611    0.008466   -0.031238  
      6.330226  0.000000 11.733682    -0.001522   -0.002558   -0.015836  
      4.220492  0.000000 13.835443    -0.007235   -0.003976   -0.034504  
      6.331934  6.331934 13.834467    -0.006377   -0.003132   -0.033364  
      4.220492  2.110246  7.500000            0           0           0  
      6.330738  4.220492  7.500000            0           0           0  
      4.220492  4.220492  9.610246            0           0           0  
      6.330738  2.110246  9.610246            0           0           0  
      4.220492  2.113440 11.736589    -0.004588   -0.013612   -0.031260  
      6.327545  4.220492 11.736589     0.006464   -0.002519   -0.031226  
      4.220492  4.220492 13.878140    -0.007667   -0.004360   -0.133451  
      6.331934  2.109050 13.834467    -0.006309   -0.004941   -0.033485  
      0.000000  6.330738  9.610246            0           0           0  
      2.110246  0.000000  9.610246            0           0           0  
      0.000000  0.000000  7.500000            0           0           0  
      2.110246  6.330738  7.500000            0           0           0  
      0.000000  6.332583 13.885868    -0.005619   -0.002521   -0.020717  
      2.108402  0.000000 13.885868    -0.006210   -0.003096   -0.020757  
      0.000000  0.000000 11.727851    -0.003574   -0.001955   -0.010691  
      2.109788  6.331196 11.728901    -0.005020   -0.000432   -0.017545  
      0.000000  2.110246  9.610246            0           0           0  
      2.110246  4.220492  9.610246            0           0           0  
      0.000000  4.220492  7.500000            0           0           0  
      2.110246  2.110246  7.500000            0           0           0  
      0.000000  2.108402 13.885868    -0.005608   -0.003639   -0.020713  
      2.100309  4.220492 13.883812    -0.016571   -0.003091   -0.050223  
      0.000000  4.220492 11.726844    -0.003602   -0.001927   -0.020573  
      2.109788  2.109788 11.728901    -0.005039   -0.003484   -0.017616  
      4.220492  6.330738  9.610246            0           0           0  
      6.330738  0.000000  9.610246            0           0           0  
      4.220492  0.000000  7.500000            0           0           0  
      6.330738  6.330738  7.500000            0           0           0  
      4.220492  6.340676 13.883812    -0.005626    0.007635   -0.049678  
      6.332583  0.000000 13.885868    -0.005113   -0.003118   -0.020701  
      4.220492  0.000000 11.726844    -0.003549   -0.002045   -0.020576  
      6.331196  6.331196 11.728901    -0.002043   -0.000471   -0.017468  
      4.220492  2.110246  9.610246            0           0           0  
      6.330738  4.220492  9.610246            0           0           0  
      4.220492  4.220492  7.500000            0           0           0  
      6.330738  2.110246  7.500000            0           0           0  
      4.220492  2.100309 13.883812    -0.005625   -0.014012   -0.050239  
      6.340676  4.220492 13.883812     0.005057   -0.003084   -0.049721  
      4.220492  4.220492 11.736841    -0.003536   -0.001949   -0.029309  
      6.331196  2.109788 11.728901    -0.001979   -0.003451   -0.017513  

 101 f/i=    1.022428 THz     6.424106 2PiTHz   34.104536 cm-1     4.228422 meV
             X         Y         Z           dx          dy          dz
      4.220492  4.220492 16.319163    -0.166387    0.306500    0.001313  
      4.220492  4.220492 17.465982    -0.447197    0.822981    0.001543  
      0.000000  6.330738  7.500000            0           0           0  
      2.110246  0.000000  7.500000            0           0           0  
      0.000000  0.000000  9.610246            0           0           0  
      2.110246  6.330738  9.610246            0           0           0  
      0.000000  6.330226 11.733682     0.001078   -0.002335   -0.000015  
      2.110759  0.000000 11.733682     0.001223   -0.002150   -0.000057  
      0.000000  0.000000 13.838217     0.001424   -0.002673   -0.000059  
      2.109050  6.331934 13.834467     0.000423   -0.002882   -0.001317  
      0.000000  2.110246  7.500000            0           0           0  
      2.110246  4.220492  7.500000            0           0           0  
      0.000000  4.220492  9.610246            0           0           0  
      2.110246  2.110246  9.610246            0           0           0  
      0.000000  2.110759 11.733682     0.001134   -0.002311    0.000017  
      2.113440  4.220492 11.736589     0.002034   -0.002802   -0.000118  
      0.000000  4.220492 13.835443    -0.000727   -0.004019    0.000074  
      2.109050  2.109050 13.834467     0.003556   -0.004599    0.000308  
      4.220492  6.330738  7.500000            0           0           0  
      6.330738  0.000000  7.500000            0           0           0  
      4.220492  0.000000  9.610246            0           0           0  
      6.330738  6.330738  9.610246            0           0           0  
      4.220492  6.327545 11.736589     0.001501   -0.003820   -0.000298  
      6.330226  0.000000 11.733682     0.001236   -0.002148   -0.000023  
      4.220492  0.000000 13.835443     0.002185    0.001177   -0.000138  
      6.331934  6.331934 13.834467     0.003554   -0.004619   -0.000328  
      4.220492  2.110246  7.500000            0           0           0  
      6.330738  4.220492  7.500000            0           0           0  
      4.220492  4.220492  9.610246            0           0           0  
      6.330738  2.110246  9.610246            0           0           0  
      4.220492  2.113440 11.736589     0.001502   -0.003797    0.000283  
      6.327545  4.220492 11.736589     0.002032   -0.002813    0.000188  
      4.220492  4.220492 13.878140     0.010430   -0.019131    0.000059  
      6.331934  2.109050 13.834467     0.000429   -0.002886    0.001238  
      0.000000  6.330738  9.610246            0           0           0  
      2.110246  0.000000  9.610246            0           0           0  
      0.000000  0.000000  7.500000            0           0           0  
      2.110246  6.330738  7.500000            0           0           0  
      0.000000  6.332583 13.885868     0.001851   -0.002674    0.000307  
      2.108402  0.000000 13.885868     0.001445   -0.003504    0.000033  
      0.000000  0.000000 11.727851     0.001252   -0.002339   -0.000036  
      2.109788  6.331196 11.728901     0.001818   -0.002341    0.001240  
      0.000000  2.110246  9.610246            0           0           0  
      2.110246  4.220492  9.610246            0           0           0  
      0.000000  4.220492  7.500000            0           0           0  
      2.110246  2.110246  7.500000            0           0           0  
      0.000000  2.108402 13.885868     0.001880   -0.002659   -0.000324  
      2.100309  4.220492 13.883812     0.001952   -0.001958    0.005519  
      0.000000  4.220492 11.726844     0.002605   -0.001191    0.000052  
      2.109788  2.109788 11.728901     0.000151   -0.001407   -0.000378  
      4.220492  6.330738  9.610246            0           0           0  
      6.330738  0.000000  9.610246            0           0           0  
      4.220492  0.000000  7.500000            0           0           0  
      6.330738  6.330738  7.500000            0           0           0  
      4.220492  6.340676 13.883812     0.001054   -0.003635    0.009693  
      6.332583  0.000000 13.885868     0.001521   -0.003506   -0.000285  
      4.220492  0.000000 11.726844     0.000636   -0.004812   -0.000057  
      6.331196  6.331196 11.728901     0.000155   -0.001458    0.000373  
      4.220492  2.110246  9.610246            0           0           0  
      6.330738  4.220492  9.610246            0           0           0  
      4.220492  4.220492  7.500000            0           0           0  
      6.330738  2.110246  7.500000            0           0           0  
      4.220492  2.100309 13.883812     0.001055   -0.003644   -0.009869  
      6.340676  4.220492 13.883812     0.001855   -0.001987   -0.005164  
      4.220492  4.220492 11.736841     0.000458   -0.000939    0.000002  
      6.331196  2.109788 11.728901     0.001842   -0.002301   -0.001249  

 102 f/i=    1.060198 THz     6.661418 2PiTHz   35.364387 cm-1     4.384623 meV
             X         Y         Z           dx          dy          dz
      4.220492  4.220492 16.319163    -0.307019   -0.167106   -0.003403  
      4.220492  4.220492 17.465982    -0.822783   -0.446914   -0.003931  
      0.000000  6.330738  7.500000            0           0           0  
      2.110246  0.000000  7.500000            0           0           0  
      0.000000  0.000000  9.610246            0           0           0  
      2.110246  6.330738  9.610246            0           0           0  
      0.000000  6.330226 11.733682     0.002114    0.001316    0.000017  
      2.110759  0.000000 11.733682     0.002325    0.001168    0.000026  
      0.000000  0.000000 13.838217     0.002700    0.001498    0.000073  
      2.109050  6.331934 13.834467     0.004600    0.003609   -0.000371  
      0.000000  2.110246  7.500000            0           0           0  
      2.110246  4.220492  7.500000            0           0           0  
      0.000000  4.220492  9.610246            0           0           0  
      2.110246  2.110246  9.610246            0           0           0  
      0.000000  2.110759 11.733682     0.002202    0.001287   -0.000009  
      2.113440  4.220492 11.736589     0.003721    0.001557   -0.000371  
      0.000000  4.220492 13.835443    -0.001135    0.002264   -0.000086  
      2.109050  2.109050 13.834467     0.002891    0.000513   -0.001236  
      4.220492  6.330738  7.500000            0           0           0  
      6.330738  0.000000  7.500000            0           0           0  
      4.220492  0.000000  9.610246            0           0           0  
      6.330738  6.330738  9.610246            0           0           0  
      4.220492  6.327545 11.736589     0.002819    0.002139    0.000110  
      6.330226  0.000000 11.733682     0.002344    0.001186    0.000023  
      4.220492  0.000000 13.835443     0.004022   -0.000653    0.000020  
      6.331934  6.331934 13.834467     0.002909    0.000528    0.001178  
      4.220492  2.110246  7.500000            0           0           0  
      6.330738  4.220492  7.500000            0           0           0  
      4.220492  4.220492  9.610246            0           0           0  
      6.330738  2.110246  9.610246            0           0           0  
      4.220492  2.113440 11.736589     0.002785    0.001957   -0.000235  
      6.327545  4.220492 11.736589     0.003892    0.001536    0.000203  
      4.220492  4.220492 13.878140     0.019037    0.010258   -0.000796  
      6.331934  2.109050 13.834467     0.004641    0.003588    0.000237  
      0.000000  6.330738  9.610246            0           0           0  
      2.110246  0.000000  9.610246            0           0           0  
      0.000000  0.000000  7.500000            0           0           0  
      2.110246  6.330738  7.500000            0           0           0  
      0.000000  6.332583 13.885868     0.003492    0.001531   -0.000181  
      2.108402  0.000000 13.885868     0.002678    0.001924    0.000387  
      0.000000  0.000000 11.727851     0.002359    0.001302    0.000029  
      2.109788  6.331196 11.728901     0.001429    0.000214    0.000361  
      0.000000  2.110246  9.610246            0           0           0  
      2.110246  4.220492  9.610246            0           0           0  
      0.000000  4.220492  7.500000            0           0           0  
      2.110246  2.110246  7.500000            0           0           0  
      0.000000  2.108402 13.885868     0.003529    0.001521    0.000151  
      2.100309  4.220492 13.883812     0.003541    0.001126    0.009575  
      0.000000  4.220492 11.726844     0.004879    0.000702   -0.000054  
      2.109788  2.109788 11.728901     0.002333    0.001856    0.001242  
      4.220492  6.330738  9.610246            0           0           0  
      6.330738  0.000000  9.610246            0           0           0  
      4.220492  0.000000  7.500000            0           0           0  
      6.330738  6.330738  7.500000            0           0           0  
      4.220492  6.340676 13.883812     0.002010    0.001989   -0.005356  
      6.332583  0.000000 13.885868     0.002643    0.001940   -0.000285  
      4.220492  0.000000 11.726844     0.001195    0.002596    0.000001  
      6.331196  6.331196 11.728901     0.002332    0.001889   -0.001272  
      4.220492  2.110246  9.610246            0           0           0  
      6.330738  4.220492  9.610246            0           0           0  
      4.220492  4.220492  7.500000            0           0           0  
      6.330738  2.110246  7.500000            0           0           0  
      4.220492  2.100309 13.883812     0.001963    0.001846    0.005165  
      6.340676  4.220492 13.883812     0.003769    0.001127   -0.010037  
      4.220492  4.220492 11.736841     0.000899    0.000487   -0.000130  
      6.331196  2.109788 11.728901     0.001442    0.000180   -0.000403  

 Finite differences POTIM=   1.0000000000000000E-002
     LOOP+:  cpu time     40.1685: real time     40.3480
    4ORBIT:  cpu time      0.0000: real time      0.0000

 total amount of memory used by VASP MPI-rank0    64472. kBytes
=======================================================================

   base      :      30000. kBytes
   nonl-proj :      17495. kBytes
   fftplans  :       4955. kBytes
   grid      :       8190. kBytes
   one-center:         73. kBytes
   wavefun   :       3759. kBytes

  
  
 General timing and accounting informations for this job:
 ========================================================
  
                  Total CPU time used (sec):     8446.988
                            User time (sec):     8431.502
                          System time (sec):       15.486
                         Elapsed time (sec):     8619.784
  
                   Maximum memory used (kb):      160172.
                   Average memory used (kb):          N/A
  
                          Minor page faults:        54721
                          Major page faults:           53
                 Voluntary context switches:       143264
