 vasp.6.3.0 20Jan22 (build Mar 11 2022 13:48:16) complex                        
  
 executed on             LinuxIFC date 2024.01.22  06:01:03
 running on  304 total cores
 distrk:  each k-point on  304 cores,    1 groups
 distr:  one band on NCORE=   2 cores,  152 groups


--------------------------------------------------------------------------------------------------------


 INCAR:
   SYSTEM = TiO2
   ISMEAR = 0
   SIGMA = 0.05
   EDIFF = 1E-5
   ALGO = ALL
   ISTART = 0
   IBRION = -1
   NSW = 0
   ISYM = 0
   ISIF = 2
   EDIFFG = -0.01
   DIPOL = 0.5 0.5 0.5
   IDIPOL = 3
   LDIPOL = .TRUE.
   GGA = MK
   LUSE_VDW = .TRUE.
   PARAM1 = 0.1234
   PARAM2 = 0.711357
   ZAB_VDW = -1.8867
   AGGAC = 0.0
   ENCUT = 600
   PREC = Accurate
   LASPH = .TRUE.
   LREAL = .FALSE.
   ISPIN = 1
   NELM = 200
   NELMIN = 8
   NCORE = 2
   KPAR = 1
   LWAVE = .FALSE.
   LCHARG = .FALSE.

 POTCAR:    PAW_PBE Ti_pv 07Sep2000               
 POTCAR:    PAW_PBE O 08Apr2002                   
 -----------------------------------------------------------------------------
|                                                                             |
|           W    W    AA    RRRRR   N    N  II  N    N   GGGG   !!!           |
|           W    W   A  A   R    R  NN   N  II  NN   N  G    G  !!!           |
|           W    W  A    A  R    R  N N  N  II  N N  N  G       !!!           |
|           W WW W  AAAAAA  RRRRR   N  N N  II  N  N N  G  GGG   !            |
|           WW  WW  A    A  R   R   N   NN  II  N   NN  G    G                |
|           W    W  A    A  R    R  N    N  II  N    N   GGGG   !!!           |
|                                                                             |
|     For optimal performance we recommend to set                             |
|       NCORE = 2 up to number-of-cores-per-socket                            |
|     NCORE specifies how many cores store one orbital (NPAR=cpu/NCORE).      |
|     This setting can greatly improve the performance of VASP for DFT.       |
|     The default, NCORE=1 might be grossly inefficient on modern             |
|     multi-core architectures or massively parallel machines. Do your        |
|     own testing! More info at https://www.vasp.at/wiki/index.php/NCORE      |
|     Unfortunately you need to use the default for GW and RPA                |
|     calculations (for HF NCORE is supported but not extensively tested      |
|     yet).                                                                   |
|                                                                             |
 -----------------------------------------------------------------------------

 -----------------------------------------------------------------------------
|                                                                             |
|               ----> ADVICE to this user running VASP <----                  |
|                                                                             |
|     You have switched on vdW-DFT.                                           |
|     This routine was written and supplied by Jiri Klimes. We recommend      |
|     that you carefully read and cite the following publications:            |
|       J. Klimes, D.R. Bowler, A. Michelides                                 |
|          J. Phys.: Cond Matt. 22 022201 (2010)                              |
|       J. Klimes, D.R. Bowler, A. Michelides                                 |
|          Phys. Rev. B. 83, 195131 (2011)                                    |
|     and references therein.                                                 |
|                                                                             |
 -----------------------------------------------------------------------------

 POTCAR:    PAW_PBE Ti_pv 07Sep2000               
   SHA256 =  f757a1b2c6d082f4c628fa3d987464a8763bf92e53844ac0500b0e2ddc9ce5c0 Ti_pv/POTCAR          
   COPYR  = (c) Copyright 07Sep2000 Georg Kresse                                                    
   COPYR  = This file is part of the software VASP. Any use, copying, and all other rights are regul
   COPYR  = If you do not have a valid VASP license, you may not use, copy or distribute this file. 
   VRHFIN =Ti: d3 s1                                                                                
   LEXCH  = PE                                                                                      
   EATOM  =  1042.5995 eV,   76.6289 Ry                                                             
                                                                                                    
   TITEL  = PAW_PBE Ti_pv 07Sep2000                                                                 
   LULTRA =        F    use ultrasoft PP ?                                                          
   IUNSCR =        1    unscreen: 0-lin 1-nonlin 2-no                                               
   RPACOR =    2.200    partial core radius                                                         
   POMASS =   47.880; ZVAL   =   10.000    mass and valenz                                          
   RCORE  =    2.500    outmost cutoff radius                                                       
   RWIGS  =    2.500; RWIGS  =    1.323    wigner-seitz radius (au A)                               
   ENMAX  =  222.335; ENMIN  =  166.751 eV                                                          
   RCLOC  =    1.701    cutoff for local pot                                                        
   LCOR   =        T    correct aug charges                                                         
   LPAW   =        T    paw PP                                                                      
   EAUG   =  482.848                                                                                
   DEXC   =    0.000                                                                                
   RMAX   =    2.564    core radius for proj-oper                                                   
   RAUG   =    1.300    factor for augmentation sphere                                              
   RDEP   =    2.538    radius for radial grids                                                     
   RDEPT  =    1.952    core radius for aug-charge                                                  
                                                                                                    
   Atomic configuration                                                                             
    8 entries                                                                                       
     n  l   j            E        occ.                                                              
     1  0  0.50     -4865.3608   2.0000                                                             
     2  0  0.50      -533.1368   2.0000                                                             
     2  1  1.50      -440.5031   6.0000                                                             
     3  0  0.50       -59.3186   2.0000                                                             
     3  1  1.50       -35.7012   6.0000                                                             
     3  2  2.50        -1.9157   3.0000                                                             
     4  0  0.50        -3.7291   1.0000                                                             
     4  3  2.50        -1.3606   0.0000                                                             
   Description                                                                                      
     l       E           TYP  RCUT    TYP  RCUT                                                     
     1    -35.7012140     23  2.300                                                                 
     1     -1.3605826     23  2.300                                                                 
     2     -1.9156996     23  2.500                                                                 
     2     -0.4063033     23  2.500                                                                 
     0     -3.7290856     23  2.500                                                                 
     0     20.4087390     23  2.500                                                                 
  local pseudopotential read in
  partial core-charges read in
  partial kinetic energy density read in
  atomic valenz-charges read in
  non local Contribution for L=           1  read in
    real space projection operators read in
  non local Contribution for L=           1  read in
    real space projection operators read in
  non local Contribution for L=           2  read in
    real space projection operators read in
  non local Contribution for L=           2  read in
    real space projection operators read in
  non local Contribution for L=           0  read in
    real space projection operators read in
  non local Contribution for L=           0  read in
    real space projection operators read in
    PAW grid and wavefunctions read in
 
   number of l-projection  operators is LMAX  =           6
   number of lm-projection operators is LMMAX =          18
 
 POTCAR:    PAW_PBE O 08Apr2002                   
   SHA256 =  818f92134a0a090dccd8ba1447fa70422a3b330e708bb4f08108d8ae51209ddf O/POTCAR              
   COPYR  = (c) Copyright 08Apr2002 Georg Kresse                                                    
   COPYR  = This file is part of the software VASP. Any use, copying, and all other rights are regul
   COPYR  = If you do not have a valid VASP license, you may not use, copy or distribute this file. 
   VRHFIN =O: s2p4                                                                                  
   LEXCH  = PE                                                                                      
   EATOM  =   432.3788 eV,   31.7789 Ry                                                             
                                                                                                    
   TITEL  = PAW_PBE O 08Apr2002                                                                     
   LULTRA =        F    use ultrasoft PP ?                                                          
   IUNSCR =        1    unscreen: 0-lin 1-nonlin 2-no                                               
   RPACOR =    1.200    partial core radius                                                         
   POMASS =   16.000; ZVAL   =    6.000    mass and valenz                                          
   RCORE  =    1.520    outmost cutoff radius                                                       
   RWIGS  =    1.550; RWIGS  =    0.820    wigner-seitz radius (au A)                               
   ENMAX  =  400.000; ENMIN  =  300.000 eV                                                          
   ICORE  =        2    local potential                                                             
   LCOR   =        T    correct aug charges                                                         
   LPAW   =        T    paw PP                                                                      
   EAUG   =  605.392                                                                                
   DEXC   =    0.000                                                                                
   RMAX   =    1.553    core radius for proj-oper                                                   
   RAUG   =    1.300    factor for augmentation sphere                                              
   RDEP   =    1.550    radius for radial grids                                                     
   RDEPT  =    1.329    core radius for aug-charge                                                  
                                                                                                    
   Atomic configuration                                                                             
    4 entries                                                                                       
     n  l   j            E        occ.                                                              
     1  0  0.50      -514.6923   2.0000                                                             
     2  0  0.50       -23.9615   2.0000                                                             
     2  1  0.50        -9.0305   4.0000                                                             
     3  2  1.50        -9.5241   0.0000                                                             
   Description                                                                                      
     l       E           TYP  RCUT    TYP  RCUT                                                     
     0    -23.9615318     23  1.200                                                                 
     0     -9.5240782     23  1.200                                                                 
     1     -9.0304911     23  1.520                                                                 
     1      8.1634956     23  1.520                                                                 
     2     -9.5240782      7  1.500                                                                 
  local pseudopotential read in
  partial core-charges read in
  partial kinetic energy density read in
  kinetic energy density of atom read in
  atomic valenz-charges read in
  non local Contribution for L=           0  read in
    real space projection operators read in
  non local Contribution for L=           0  read in
    real space projection operators read in
  non local Contribution for L=           1  read in
    real space projection operators read in
  non local Contribution for L=           1  read in
    real space projection operators read in
    PAW grid and wavefunctions read in
 
   number of l-projection  operators is LMAX  =           4
   number of lm-projection operators is LMMAX =           8
 
 -----------------------------------------------------------------------------
|                                                                             |
|               ----> ADVICE to this user running VASP <----                  |
|                                                                             |
|     You have a (more or less) 'large supercell' and for larger cells it     |
|     might be more efficient to use real-space projection operators.         |
|     Therefore, try LREAL= Auto in the INCAR file.                           |
|     Mind: For very accurate calculation, you might also keep the            |
|     reciprocal projection scheme (i.e. LREAL=.FALSE.).                      |
|                                                                             |
 -----------------------------------------------------------------------------

 -----------------------------------------------------------------------------
|                                                                             |
|               ----> ADVICE to this user running VASP <----                  |
|                                                                             |
|     You enforced a specific xc type in the INCAR file but a different       |
|     type was found in the POTCAR file.                                      |
|     I HOPE YOU KNOW WHAT YOU ARE DOING!                                     |
|                                                                             |
 -----------------------------------------------------------------------------

  PAW_PBE Ti_pv 07Sep2000               :
 energy of atom  1       EATOM=-1042.5995
 kinetic energy error for atom=    0.0007 (will be added to EATOM!!)
  PAW_PBE O 08Apr2002                   :
 energy of atom  2       EATOM= -432.3788
 kinetic energy error for atom=    0.0168 (will be added to EATOM!!)
 
 
 POSCAR: Ti  O
  positions in direct lattice
  No initial velocities read in
 exchange correlation table for  LEXCH =       43
   RHO(1)=    0.500       N(1)  =     2000
   RHO(2)=  100.500       N(2)  =     4000
 


--------------------------------------------------------------------------------------------------------


 ion  position               nearest neighbor table
   1  0.808  0.833  0.295-  85 1.94  51 1.94  53 1.94  50 1.99  52 1.99  18 3.05   4 3.05   2 3.05

   2  0.592  0.667  0.327-  49 1.94 116 1.94  52 1.94  54 1.94  53 1.99  55 1.99  33 3.05   3 3.05
                             1 3.05   7 3.08
   3  0.308  0.667  0.295- 121 1.94  55 1.94  57 1.94  49 1.99  56 1.99  36 3.05   2 3.05   4 3.05

   4  0.092  0.833  0.327-  50 1.94  88 1.94  56 1.94  58 1.94  57 1.99  51 1.99  19 3.05   1 3.05
                             3 3.05   5 3.08
   5  0.945  0.834  0.423-  59 1.92  93 1.93  61 1.94  51 1.98  60 1.98  58 2.00   8 2.99   6 3.04
                            22 3.05   4 3.08
   6  0.727  0.666  0.451-  54 1.89 124 1.93  60 1.94  62 1.96  63 1.99  61 2.00   7 3.01   5 3.04
                            37 3.05  11 3.10
   7  0.444  0.667  0.422-  63 1.93 129 1.93  65 1.93  55 1.97  64 1.99  54 2.00   6 3.01   8 3.05
                            40 3.05   2 3.08
   8  0.226  0.833  0.452-  58 1.90  96 1.94  64 1.94  59 1.97  66 1.97  65 2.01   5 2.99  23 3.05
                             7 3.05   9 3.11
   9  0.086  0.834  0.550-  67 1.92 101 1.93  69 1.94  68 1.97  66 2.01  59 2.01  12 2.95  10 3.04
                            26 3.05   8 3.11
  10  0.865  0.666  0.575-  62 1.86 132 1.93  68 1.94  71 1.95  69 2.01  70 2.01  11 2.98   9 3.04
                            41 3.05  15 3.17
  11  0.584  0.667  0.549- 137 1.93  71 1.93  73 1.93  63 1.97  72 1.98  62 2.02  10 2.98  12 3.05
                            44 3.06   6 3.10
  12  0.364  0.834  0.577-  66 1.86 104 1.94  72 1.94  67 1.95  74 2.00  73 2.02   9 2.95  27 3.05
                            11 3.05
  13  0.231  0.833  0.681-  75 1.86  77 1.93 109 1.94  76 2.00  74 2.10  67 2.10  16 2.85  30 3.07
                            14 3.09
  14  0.000  0.666  0.700-  70 1.78  78 1.84 140 1.97  76 1.98  77 2.07  15 2.86  13 3.09  45 3.10

  15  0.729  0.666  0.677-  78 1.89 144 1.92  80 1.94  79 1.99  71 2.03  70 2.10  14 2.86  16 3.08
                            48 3.08  10 3.17
  16  0.503  0.834  0.700-  74 1.78  75 1.84  79 1.97 111 1.97  80 2.06  13 2.85  31 3.07  15 3.08

  17  0.808  0.167  0.295-  85 1.94  83 1.94 117 1.94  82 1.99  84 1.99  18 3.05  20 3.05  34 3.05

  18  0.592  0.000  0.327-  81 1.94  52 1.94  84 1.94  86 1.94  85 1.99  87 1.99   1 3.05  17 3.05
                            19 3.05  23 3.08
  19  0.308  0.000  0.295-  57 1.94  89 1.94  87 1.94  88 1.99  81 1.99  20 3.05   4 3.05  18 3.05

  20  0.092  0.167  0.327-  82 1.94  88 1.94 120 1.94  90 1.94  89 1.99  83 1.99  19 3.05  17 3.05
                            35 3.05  21 3.08
  21  0.945  0.167  0.423-  91 1.92  93 1.93 125 1.94  83 1.98  92 1.98  90 2.00  24 2.99  38 3.04
                            22 3.05  20 3.08
  22  0.726  0.000  0.451-  86 1.89  92 1.94  60 1.94  94 1.97  95 1.98  93 2.00  23 3.00  21 3.05
                             5 3.05  27 3.11
  23  0.444  0.000  0.423-  95 1.92  65 1.93  97 1.93  87 1.98  96 1.99  86 2.00  22 3.00  24 3.05
                             8 3.05  18 3.08
  24  0.226  0.167  0.452-  90 1.90  96 1.94 128 1.94  91 1.97  98 1.97  97 2.01  21 2.99  23 3.05
                            39 3.05  25 3.11
  25  0.086  0.167  0.550-  99 1.92 101 1.93 133 1.94 100 1.97  98 2.01  91 2.01  28 2.95  42 3.04
                            26 3.05  24 3.11
  26  0.864  0.000  0.576-  94 1.86 100 1.94  68 1.94 103 1.94 102 2.01 101 2.03  27 2.96   9 3.05
                            25 3.05
  27  0.585  0.000  0.550- 103 1.92  73 1.93 105 1.93 104 1.98  95 2.00  94 2.01  26 2.96  12 3.05
                            28 3.05  22 3.11
  28  0.364  0.167  0.577-  98 1.86 104 1.94 136 1.94  99 1.95 106 2.00 105 2.02  25 2.95  27 3.05
                            43 3.05
  29  0.231  0.168  0.681- 107 1.86 141 1.93 109 1.94 108 2.00 106 2.10  99 2.10  32 2.85  30 3.07
                            46 3.09
  30  0.003  0.000  0.700- 102 1.78 110 1.83 108 1.98  76 1.98 109 2.05  31 2.84  29 3.07  13 3.07

  31  0.732  0.000  0.680- 110 1.86  80 1.93 112 1.93 111 2.00 102 2.09 103 2.09  30 2.84  32 3.07
                            16 3.07
  32  0.503  0.166  0.700- 106 1.78 107 1.84 143 1.97 111 1.97 112 2.06  29 2.85  31 3.07  47 3.08

  33  0.808  0.500  0.295-  53 1.94 117 1.94 115 1.94 116 1.99 114 1.99   2 3.05  34 3.05  36 3.05

  34  0.592  0.333  0.327- 113 1.94 116 1.94  84 1.94 118 1.94 117 1.99 119 1.99  33 3.05  35 3.05
                            17 3.05  39 3.08
  35  0.308  0.333  0.295- 121 1.94 119 1.94  89 1.94 120 1.99 113 1.99  36 3.05  34 3.05  20 3.05

  36  0.092  0.500  0.327- 114 1.94  56 1.94 120 1.94 122 1.94 121 1.99 115 1.99  35 3.05   3 3.05
                            33 3.05  37 3.07
  37  0.946  0.500  0.422- 123 1.93  61 1.93 125 1.94 115 1.97 122 1.98 124 2.00  40 2.99  38 3.05
                             6 3.05  36 3.07
  38  0.727  0.334  0.451- 118 1.89 124 1.93  92 1.94 126 1.96 127 1.99 125 2.00  39 3.01  21 3.04
                            37 3.05  43 3.10
  39  0.444  0.334  0.422- 127 1.93 129 1.93  97 1.93 119 1.97 128 1.99 118 2.01  38 3.01  24 3.05
                            40 3.05  34 3.08
  40  0.226  0.500  0.453- 122 1.92 128 1.94  64 1.94 123 1.96 130 1.97 129 2.01  37 2.99  39 3.05
                             7 3.05  41 3.07
  41  0.089  0.500  0.551- 131 1.92  69 1.93 133 1.93 130 1.98 132 2.00 123 2.01  44 2.96  42 3.05
                            10 3.05  40 3.07
  42  0.865  0.334  0.575- 126 1.86 132 1.93 100 1.94 135 1.95 133 2.01 134 2.01  43 2.98  25 3.04
                            41 3.05  47 3.16
  43  0.584  0.334  0.549- 137 1.93 135 1.93 105 1.93 127 1.97 136 1.98 126 2.02  42 2.98  28 3.05
                            44 3.06  38 3.10
  44  0.366  0.500  0.580- 130 1.92  72 1.94 136 1.94 131 1.94 138 2.00 137 2.03  41 2.96  43 3.06
                            11 3.06  45 3.14
  45  0.234  0.500  0.681- 139 1.86 141 1.93  77 1.93 140 2.03 138 2.05 131 2.10  48 2.87  14 3.10
                            46 3.10  44 3.14
  46  1.000  0.335  0.700- 134 1.78 142 1.84 140 1.97 108 1.98 141 2.07  47 2.86  29 3.09  45 3.10

  47  0.729  0.335  0.677- 142 1.90 144 1.92 112 1.94 143 1.99 135 2.03 134 2.10  46 2.86  32 3.08
                            48 3.08  42 3.16
  48  0.505  0.500  0.706- 139 1.82 138 1.86 143 1.98  79 1.98 144 2.11  45 2.87  47 3.08  15 3.08

  49  0.488  0.667  0.269-   2 1.94   3 1.99
  50  0.988  0.833  0.269-   4 1.94   1 1.99
  51  0.911  0.833  0.353-   1 1.94   5 1.98   4 1.99
  52  0.627  0.833  0.321-  18 1.94   2 1.94   1 1.99
  53  0.772  0.667  0.300-  33 1.94   1 1.94   2 1.99
  54  0.624  0.667  0.395-   6 1.89   2 1.94   7 2.00
  55  0.411  0.667  0.353-   3 1.94   7 1.97   2 1.99
  56  0.127  0.667  0.321-  36 1.94   4 1.94   3 1.99
  57  0.272  0.833  0.300-  19 1.94   3 1.94   4 1.99
  58  0.124  0.833  0.395-   8 1.90   4 1.94   5 2.00
  59  0.049  0.834  0.480-   5 1.92   8 1.97   9 2.01
  60  0.764  0.833  0.447-  22 1.94   6 1.94   5 1.98
  61  0.910  0.667  0.427-  37 1.93   5 1.94   6 2.00
  62  0.764  0.666  0.520-  10 1.86   6 1.96  11 2.02
  63  0.549  0.666  0.480-   7 1.93  11 1.97   6 1.99
  64  0.264  0.667  0.448-  40 1.94   8 1.94   7 1.99
  65  0.409  0.833  0.427-   7 1.93  23 1.93   8 2.01
  66  0.264  0.833  0.521-  12 1.86   8 1.97   9 2.01
  67  0.193  0.833  0.607-   9 1.92  12 1.95  13 2.10
  68  0.904  0.834  0.573-  26 1.94  10 1.94   9 1.97
  69  0.052  0.667  0.553-  41 1.93   9 1.94  10 2.01
  70  0.914  0.668  0.645-  14 1.78  10 2.01  15 2.10
  71  0.694  0.669  0.605-  11 1.93  10 1.95  15 2.03
  72  0.405  0.667  0.575-  44 1.94  12 1.94  11 1.98
  73  0.549  0.834  0.553-  27 1.93  11 1.93  12 2.02
  74  0.412  0.835  0.646-  16 1.78  12 2.00  13 2.10
  75  0.347  0.833  0.732-  16 1.84  13 1.86
  76  0.052  0.833  0.709-  30 1.98  14 1.98  13 2.00
  77  0.195  0.666  0.681-  13 1.93  45 1.93  14 2.07
  78  0.841  0.661  0.731-  14 1.84  15 1.89
  79  0.554  0.668  0.708-  16 1.97  48 1.98  15 1.99
  80  0.695  0.834  0.679-  31 1.93  15 1.94  16 2.06
  81  0.488  0.000  0.269-  18 1.94  19 1.99
  82  0.988  0.167  0.269-  20 1.94  17 1.99
  83  0.911  0.167  0.353-  17 1.94  21 1.98  20 1.99
  84  0.627  0.167  0.321-  18 1.94  34 1.94  17 1.99
  85  0.772  0.000  0.300-   1 1.94  17 1.94  18 1.99
  86  0.624  0.000  0.395-  22 1.89  18 1.94  23 2.00
  87  0.411  0.000  0.353-  19 1.94  23 1.98  18 1.99
  88  0.127  0.000  0.321-   4 1.94  20 1.94  19 1.99
  89  0.272  0.167  0.300-  19 1.94  35 1.94  20 1.99
  90  0.124  0.167  0.395-  24 1.90  20 1.94  21 2.00
  91  0.049  0.167  0.480-  21 1.92  24 1.97  25 2.01
  92  0.764  0.167  0.447-  22 1.94  38 1.94  21 1.98
  93  0.909  0.000  0.427-   5 1.93  21 1.93  22 2.00
  94  0.764  0.000  0.520-  26 1.86  22 1.97  27 2.01
  95  0.549  0.000  0.480-  23 1.92  22 1.98  27 2.00
  96  0.264  0.000  0.448-  24 1.94   8 1.94  23 1.99
  97  0.409  0.167  0.427-  39 1.93  23 1.93  24 2.01
  98  0.264  0.167  0.521-  28 1.86  24 1.97  25 2.01
  99  0.193  0.167  0.607-  25 1.92  28 1.95  29 2.10
 100  0.904  0.167  0.573-  26 1.94  42 1.94  25 1.97
 101  0.051  0.000  0.553-   9 1.93  25 1.93  26 2.03
 102  0.913  0.000  0.646-  30 1.78  26 2.01  31 2.09
 103  0.693  0.000  0.606-  27 1.92  26 1.94  31 2.09
 104  0.404  0.000  0.574-  12 1.94  28 1.94  27 1.98
 105  0.549  0.167  0.553-  27 1.93  43 1.93  28 2.02
 106  0.412  0.165  0.646-  32 1.78  28 2.00  29 2.10
 107  0.347  0.167  0.732-  32 1.84  29 1.86
 108  0.052  0.168  0.709-  30 1.98  46 1.98  29 2.00
 109  0.195  0.000  0.681-  29 1.94  13 1.94  30 2.05
 110  0.846  0.000  0.731-  30 1.83  31 1.86
 111  0.554  0.000  0.709-  32 1.97  16 1.97  31 2.00
 112  0.695  0.166  0.679-  31 1.93  47 1.94  32 2.06
 113  0.488  0.333  0.269-  34 1.94  35 1.99
 114  0.988  0.500  0.269-  36 1.94  33 1.99
 115  0.911  0.500  0.353-  33 1.94  37 1.97  36 1.99
 116  0.627  0.500  0.321-   2 1.94  34 1.94  33 1.99
 117  0.772  0.333  0.300-  33 1.94  17 1.94  34 1.99
 118  0.624  0.333  0.395-  38 1.89  34 1.94  39 2.01
 119  0.411  0.333  0.353-  35 1.94  39 1.97  34 1.99
 120  0.127  0.333  0.321-  36 1.94  20 1.94  35 1.99
 121  0.272  0.500  0.300-   3 1.94  35 1.94  36 1.99
 122  0.124  0.500  0.395-  40 1.92  36 1.94  37 1.98
 123  0.050  0.500  0.480-  37 1.93  40 1.96  41 2.01
 124  0.764  0.500  0.447-  38 1.93   6 1.93  37 2.00
 125  0.910  0.334  0.427-  21 1.94  37 1.94  38 2.00
 126  0.764  0.334  0.520-  42 1.86  38 1.96  43 2.02
 127  0.549  0.334  0.480-  39 1.93  43 1.97  38 1.99
 128  0.264  0.334  0.448-  40 1.94  24 1.94  39 1.99
 129  0.409  0.500  0.427-  39 1.93   7 1.93  40 2.01
 130  0.266  0.500  0.522-  44 1.92  40 1.97  41 1.98
 131  0.193  0.500  0.608-  41 1.92  44 1.94  45 2.10
 132  0.904  0.500  0.573-  42 1.93  10 1.93  41 2.00
 133  0.051  0.334  0.553-  41 1.93  25 1.94  42 2.01
 134  0.914  0.332  0.645-  46 1.78  42 2.01  47 2.10
 135  0.694  0.331  0.605-  43 1.93  42 1.95  47 2.03
 136  0.405  0.334  0.575-  44 1.94  28 1.94  43 1.98
 137  0.551  0.500  0.554-  43 1.93  11 1.93  44 2.03
 138  0.413  0.500  0.649-  48 1.86  44 2.00  45 2.05
 139  0.345  0.500  0.734-  48 1.82  45 1.86
 140  0.051  0.500  0.708-  46 1.97  14 1.97  45 2.03
 141  0.195  0.334  0.681-  29 1.93  45 1.93  46 2.07
 142  0.841  0.340  0.731-  46 1.84  47 1.90
 143  0.554  0.332  0.708-  32 1.97  48 1.98  47 1.99
 144  0.693  0.500  0.675-  15 1.92  47 1.92  48 2.11
 

IMPORTANT INFORMATION: All symmetrisations will be switched off!
NOSYMM: (Re-)initialisation of all symmetry stuff for point group C_1.


----------------------------------------------------------------------------------------

                                     Primitive cell                                     

  volume of cell :    3260.9117

  direct lattice vectors                    reciprocal lattice vectors
    10.273755933  0.000000000  0.000000000     0.097335386 -0.000000000  0.000000000
     0.000000000 11.368810418  0.000000000     0.000000000  0.087959950  0.000000000
     0.000000000  0.000000000 27.918672987     0.000000000  0.000000000  0.035818321

  length of vectors
    10.273755933 11.368810418 27.918672987     0.097335386  0.087959950  0.035818321

  position of ions in fractional coordinates (direct lattice)
     0.807806441  0.833333333  0.294980927
     0.591821331  0.666666667  0.326522323
     0.307806441  0.666666667  0.294980927
     0.091821331  0.833333333  0.326522323
     0.944936016  0.833592994  0.422634356
     0.726784234  0.666360659  0.451087171
     0.444154410  0.666536171  0.422460026
     0.225516893  0.833355411  0.451649642
     0.086220832  0.833836312  0.550363867
     0.865371152  0.666442150  0.575203786
     0.584363779  0.666746726  0.549169089
     0.364004667  0.833563571  0.576685314
     0.231093735  0.832846627  0.680708739
     0.000059469  0.665926621  0.700217443
     0.728768258  0.665842968  0.676858411
     0.503351564  0.834376072  0.700422841
     0.807806441  0.166666667  0.294980927
     0.591821331  0.000000000  0.326522323
     0.307806441  0.000000000  0.294980927
     0.091821331  0.166666667  0.326522323
     0.944907191  0.166634299  0.422632453
     0.725966435  0.000106272  0.451284245
     0.444341875  0.000062189  0.422616034
     0.225528101  0.166772302  0.451637500
     0.086194911  0.166618858  0.550349543
     0.863904270  0.000219324  0.575871299
     0.585037307  0.000165487  0.549799363
     0.363979419  0.166755547  0.576680584
     0.231074657  0.167677277  0.680701589
     0.002721156  0.000281701  0.700220171
     0.732048348  0.000177717  0.679576983
     0.503315483  0.165925900  0.700404163
     0.807806441  0.500000000  0.294980927
     0.591821331  0.333333333  0.326522323
     0.307806441  0.333333333  0.294980927
     0.091821331  0.500000000  0.326522323
     0.946425691  0.500128300  0.422422165
     0.726820674  0.333864562  0.451078499
     0.444131913  0.333600337  0.422451876
     0.225927638  0.500065169  0.452688633
     0.089169903  0.500263423  0.550561894
     0.865458880  0.334016850  0.575172136
     0.584295560  0.333579456  0.549135456
     0.366079439  0.500174889  0.579668511
     0.234455809  0.500227959  0.681181799
     0.999904124  0.334612317  0.700247354
     0.728611835  0.334550951  0.676714223
     0.505168272  0.500150423  0.706461589
     0.488198186  0.666666667  0.268637410
     0.988198186  0.833333333  0.268637410
     0.911429586  0.833333333  0.352865840
     0.627414697  0.833333333  0.321324444
     0.772213075  0.666666667  0.300178806
     0.624257743  0.666666667  0.394802993
     0.411429586  0.666666667  0.352865840
     0.127414697  0.666666667  0.321324444
     0.272213075  0.833333333  0.300178806
     0.124257743  0.833333333  0.394802993
     0.049450730  0.833616374  0.479729049
     0.763932530  0.833386078  0.447381160
     0.909517175  0.666668612  0.426645094
     0.764121834  0.666166738  0.519961755
     0.549005005  0.666212421  0.479636524
     0.263686303  0.666588486  0.447937513
     0.408545413  0.833283119  0.426594922
     0.264256539  0.833017011  0.520890448
     0.192672667  0.833229847  0.606846967
     0.904028900  0.833705728  0.572831354
     0.051509012  0.666656032  0.553058785
     0.913608099  0.668062565  0.645067029
     0.694014453  0.669477664  0.605322014
     0.404695942  0.666633848  0.574749608
     0.549140177  0.833516497  0.552618009
     0.412496999  0.834711341  0.646168685
     0.346527038  0.833139543  0.731964120
     0.051590948  0.832883985  0.708570149
     0.194710463  0.666449191  0.680980953
     0.841144099  0.661294028  0.730616417
     0.554343631  0.668433032  0.707963731
     0.694952374  0.833935924  0.678791280
     0.488198186  0.000000000  0.268637410
     0.988198186  0.166666667  0.268637410
     0.911429586  0.166666667  0.352865840
     0.627414697  0.166666667  0.321324444
     0.772213075  0.000000000  0.300178806
     0.624257743  0.000000000  0.394802993
     0.411429586  0.000000000  0.352865840
     0.127414697  0.000000000  0.321324444
     0.272213075  0.166666667  0.300178806
     0.124257743  0.166666667  0.394802993
     0.049444347  0.166692862  0.479723394
     0.763934546  0.166812090  0.447379005
     0.909187823  0.000094037  0.426595289
     0.763681578  0.000167257  0.520297409
     0.549076187  0.000105389  0.479548570
     0.263682736  0.000067908  0.447892203
     0.408542952  0.166843307  0.426588930
     0.264264827  0.167240010  0.520878776
     0.192648445  0.167245602  0.606834905
     0.904017003  0.166727208  0.572802520
     0.051406344  0.000199947  0.553201281
     0.913404396  0.000295284  0.645548569
     0.693139602  0.000213297  0.605921230
     0.403638473  0.000158709  0.573905228
     0.549094045  0.166811379  0.552597839
     0.412446394  0.165419743  0.646157994
     0.346532714  0.167419954  0.731951577
     0.051531979  0.167679226  0.708608548
     0.194677859  0.000275705  0.680715692
     0.845635050  0.000175850  0.731423235
     0.554207324  0.000159657  0.708989313
     0.695021224  0.166436513  0.678831194
     0.488198186  0.333333333  0.268637410
     0.988198186  0.500000000  0.268637410
     0.911429586  0.500000000  0.352865840
     0.627414697  0.500000000  0.321324444
     0.772213075  0.333333333  0.300178806
     0.624257743  0.333333333  0.394802993
     0.411429586  0.333333333  0.352865840
     0.127414697  0.333333333  0.321324444
     0.272213075  0.500000000  0.300178806
     0.124257743  0.500000000  0.394802993
     0.050123259  0.500165230  0.479964480
     0.764050717  0.500102538  0.447119844
     0.909506762  0.333525609  0.426647673
     0.764115505  0.334190005  0.519955845
     0.548986791  0.334022435  0.479635755
     0.263691932  0.333546967  0.447935930
     0.408625909  0.500062410  0.426610329
     0.265529602  0.500112423  0.521897802
     0.193219287  0.500253929  0.607629011
     0.904259273  0.500204384  0.573355459
     0.051497206  0.333778143  0.553053804
     0.913582572  0.332279867  0.645062445
     0.694023910  0.330889274  0.605301785
     0.404715624  0.333690153  0.574801670
     0.550703610  0.500155942  0.553848464
     0.413388064  0.500326819  0.648977142
     0.344765886  0.500180920  0.734193361
     0.051494479  0.500243052  0.708401869
     0.194611737  0.334045911  0.680945149
     0.840859944  0.339655616  0.730605518
     0.554163142  0.331947429  0.707692984
     0.692569110  0.500245698  0.675176649

  ion indices of the primitive-cell ions
   primitive index   ion index
                 1           1
                 2           2
                 3           3
                 4           4
                 5           5
                 6           6
                 7           7
                 8           8
                 9           9
                10          10
                11          11
                12          12
                13          13
                14          14
                15          15
                16          16
                17          17
                18          18
                19          19
                20          20
                21          21
                22          22
                23          23
                24          24
                25          25
                26          26
                27          27
                28          28
                29          29
                30          30
                31          31
                32          32
                33          33
                34          34
                35          35
                36          36
                37          37
                38          38
                39          39
                40          40
                41          41
                42          42
                43          43
                44          44
                45          45
                46          46
                47          47
                48          48
                49          49
                50          50
                51          51
                52          52
                53          53
                54          54
                55          55
                56          56
                57          57
                58          58
                59          59
                60          60
                61          61
                62          62
                63          63
                64          64
                65          65
                66          66
                67          67
                68          68
                69          69
                70          70
                71          71
                72          72
                73          73
                74          74
                75          75
                76          76
                77          77
                78          78
                79          79
                80          80
                81          81
                82          82
                83          83
                84          84
                85          85
                86          86
                87          87
                88          88
                89          89
                90          90
                91          91
                92          92
                93          93
                94          94
                95          95
                96          96
                97          97
                98          98
                99          99
               100         100
               101         101
               102         102
               103         103
               104         104
               105         105
               106         106
               107         107
               108         108
               109         109
               110         110
               111         111
               112         112
               113         113
               114         114
               115         115
               116         116
               117         117
               118         118
               119         119
               120         120
               121         121
               122         122
               123         123
               124         124
               125         125
               126         126
               127         127
               128         128
               129         129
               130         130
               131         131
               132         132
               133         133
               134         134
               135         135
               136         136
               137         137
               138         138
               139         139
               140         140
               141         141
               142         142
               143         143
               144         144

----------------------------------------------------------------------------------------

 
 
 KPOINTS: pymatgen v2020.8.13 with grid density = 

Automatic generation of k-mesh.
 Grid dimensions read from file:
 generate k-points for:    3    3    1

 Generating k-lattice:

  Cartesian coordinates                     Fractional coordinates (reciprocal lattice)
     0.032445129 -0.000000000  0.000000000     0.333333333 -0.000000000  0.000000000
     0.000000000  0.029319983  0.000000000     0.000000000  0.333333333  0.000000000
     0.000000000  0.000000000  0.035818321     0.000000000  0.000000000  1.000000000

  Length of vectors
     0.032445129  0.029319983  0.035818321

  Shift w.r.t. Gamma in fractional coordinates (k-lattice)
     0.000000000  0.000000000  0.000000000

 
 Subroutine IBZKPT returns following result:
 ===========================================
 
 Found      5 irreducible k-points:
 
 Following reciprocal coordinates:
            Coordinates               Weight
  0.000000  0.000000  0.000000      1.000000
  0.333333  0.000000  0.000000      2.000000
  0.000000  0.333333  0.000000      2.000000
  0.333333  0.333333  0.000000      2.000000
  0.333333 -0.333333  0.000000      2.000000
 
 Following cartesian coordinates:
            Coordinates               Weight
  0.000000  0.000000  0.000000      1.000000
  0.032445 -0.000000  0.000000      2.000000
  0.000000  0.029320  0.000000      2.000000
  0.032445  0.029320  0.000000      2.000000
  0.032445 -0.029320  0.000000      2.000000
 


--------------------------------------------------------------------------------------------------------




 Dimension of arrays:
   k-points           NKPTS =      5   k-points in BZ     NKDIM =      5   number of bands    NBANDS=    760
   number of dos      NEDOS =    301   number of ions     NIONS =    144
   non local maximal  LDIM  =      6   non local SUM 2l+1 LMDIM =     18
   total plane-waves  NPLWV = ******
   max r-space proj   IRMAX =      1   max aug-charges    IRDMAX=  21703
   dimension x,y,z NGX =    84 NGY =   96 NGZ =  224
   dimension x,y,z NGXF=   168 NGYF=  192 NGZF=  448
   support grid    NGXF=   168 NGYF=  192 NGZF=  448
   ions per type =              48  96
   NGX,Y,Z   is equivalent  to a cutoff of  13.59, 14.04, 13.34 a.u.
   NGXF,Y,Z  is equivalent  to a cutoff of  27.19, 28.08, 26.68 a.u.

 SYSTEM =  TiO2                                    
 POSCAR =  Ti  O                                   

--------------------------------------------------------------------------------------------------------


  energy-cutoff  :      600.00
  volume of cell :     3260.91
      direct lattice vectors                 reciprocal lattice vectors
    10.273755933  0.000000000  0.000000000     0.097335386 -0.000000000  0.000000000
     0.000000000 11.368810418  0.000000000     0.000000000  0.087959950  0.000000000
     0.000000000  0.000000000 27.918672987     0.000000000  0.000000000  0.035818321

  length of vectors
    10.273755933 11.368810418 27.918672987     0.097335386  0.087959950  0.035818321


 
 k-points in units of 2pi/SCALE and weight: pymatgen v2020.8.13 with grid density = 
   0.00000000  0.00000000  0.00000000       0.111
   0.03244513 -0.00000000  0.00000000       0.222
   0.00000000  0.02931998  0.00000000       0.222
   0.03244513  0.02931998  0.00000000       0.222
   0.03244513 -0.02931998  0.00000000       0.222
 
 k-points in reciprocal lattice and weights: pymatgen v2020.8.13 with grid density = 
   0.00000000  0.00000000  0.00000000       0.111
   0.33333333  0.00000000  0.00000000       0.222
   0.00000000  0.33333333  0.00000000       0.222
   0.33333333  0.33333333  0.00000000       0.222
   0.33333333 -0.33333333  0.00000000       0.222
 
 position of ions in fractional coordinates (direct lattice) 
   0.80780644  0.83333333  0.29498093
   0.59182133  0.66666667  0.32652232
   0.30780644  0.66666667  0.29498093
   0.09182133  0.83333333  0.32652232
   0.94493602  0.83359299  0.42263436
   0.72678423  0.66636066  0.45108717
   0.44415441  0.66653617  0.42246003
   0.22551689  0.83335541  0.45164964
   0.08622083  0.83383631  0.55036387
   0.86537115  0.66644215  0.57520379
   0.58436378  0.66674673  0.54916909
   0.36400467  0.83356357  0.57668531
   0.23109374  0.83284663  0.68070874
   0.00005947  0.66592662  0.70021744
   0.72876826  0.66584297  0.67685841
   0.50335156  0.83437607  0.70042284
   0.80780644  0.16666667  0.29498093
   0.59182133  0.00000000  0.32652232
   0.30780644  0.00000000  0.29498093
   0.09182133  0.16666667  0.32652232
   0.94490719  0.16663430  0.42263245
   0.72596643  0.00010627  0.45128424
   0.44434187  0.00006219  0.42261603
   0.22552810  0.16677230  0.45163750
   0.08619491  0.16661886  0.55034954
   0.86390427  0.00021932  0.57587130
   0.58503731  0.00016549  0.54979936
   0.36397942  0.16675555  0.57668058
   0.23107466  0.16767728  0.68070159
   0.00272116  0.00028170  0.70022017
   0.73204835  0.00017772  0.67957698
   0.50331548  0.16592590  0.70040416
   0.80780644  0.50000000  0.29498093
   0.59182133  0.33333333  0.32652232
   0.30780644  0.33333333  0.29498093
   0.09182133  0.50000000  0.32652232
   0.94642569  0.50012830  0.42242216
   0.72682067  0.33386456  0.45107850
   0.44413191  0.33360034  0.42245188
   0.22592764  0.50006517  0.45268863
   0.08916990  0.50026342  0.55056189
   0.86545888  0.33401685  0.57517214
   0.58429556  0.33357946  0.54913546
   0.36607944  0.50017489  0.57966851
   0.23445581  0.50022796  0.68118180
   0.99990412  0.33461232  0.70024735
   0.72861183  0.33455095  0.67671422
   0.50516827  0.50015042  0.70646159
   0.48819819  0.66666667  0.26863741
   0.98819819  0.83333333  0.26863741
   0.91142959  0.83333333  0.35286584
   0.62741470  0.83333333  0.32132444
   0.77221308  0.66666667  0.30017881
   0.62425774  0.66666667  0.39480299
   0.41142959  0.66666667  0.35286584
   0.12741470  0.66666667  0.32132444
   0.27221308  0.83333333  0.30017881
   0.12425774  0.83333333  0.39480299
   0.04945073  0.83361637  0.47972905
   0.76393253  0.83338608  0.44738116
   0.90951718  0.66666861  0.42664509
   0.76412183  0.66616674  0.51996175
   0.54900501  0.66621242  0.47963652
   0.26368630  0.66658849  0.44793751
   0.40854541  0.83328312  0.42659492
   0.26425654  0.83301701  0.52089045
   0.19267267  0.83322985  0.60684697
   0.90402890  0.83370573  0.57283135
   0.05150901  0.66665603  0.55305878
   0.91360810  0.66806257  0.64506703
   0.69401445  0.66947766  0.60532201
   0.40469594  0.66663385  0.57474961
   0.54914018  0.83351650  0.55261801
   0.41249700  0.83471134  0.64616868
   0.34652704  0.83313954  0.73196412
   0.05159095  0.83288399  0.70857015
   0.19471046  0.66644919  0.68098095
   0.84114410  0.66129403  0.73061642
   0.55434363  0.66843303  0.70796373
   0.69495237  0.83393592  0.67879128
   0.48819819  0.00000000  0.26863741
   0.98819819  0.16666667  0.26863741
   0.91142959  0.16666667  0.35286584
   0.62741470  0.16666667  0.32132444
   0.77221308  0.00000000  0.30017881
   0.62425774  0.00000000  0.39480299
   0.41142959  0.00000000  0.35286584
   0.12741470  0.00000000  0.32132444
   0.27221308  0.16666667  0.30017881
   0.12425774  0.16666667  0.39480299
   0.04944435  0.16669286  0.47972339
   0.76393455  0.16681209  0.44737900
   0.90918782  0.00009404  0.42659529
   0.76368158  0.00016726  0.52029741
   0.54907619  0.00010539  0.47954857
   0.26368274  0.00006791  0.44789220
   0.40854295  0.16684331  0.42658893
   0.26426483  0.16724001  0.52087878
   0.19264844  0.16724560  0.60683490
   0.90401700  0.16672721  0.57280252
   0.05140634  0.00019995  0.55320128
   0.91340440  0.00029528  0.64554857
   0.69313960  0.00021330  0.60592123
   0.40363847  0.00015871  0.57390523
   0.54909405  0.16681138  0.55259784
   0.41244639  0.16541974  0.64615799
   0.34653271  0.16741995  0.73195158
   0.05153198  0.16767923  0.70860855
   0.19467786  0.00027570  0.68071569
   0.84563505  0.00017585  0.73142323
   0.55420732  0.00015966  0.70898931
   0.69502122  0.16643651  0.67883119
   0.48819819  0.33333333  0.26863741
   0.98819819  0.50000000  0.26863741
   0.91142959  0.50000000  0.35286584
   0.62741470  0.50000000  0.32132444
   0.77221308  0.33333333  0.30017881
   0.62425774  0.33333333  0.39480299
   0.41142959  0.33333333  0.35286584
   0.12741470  0.33333333  0.32132444
   0.27221308  0.50000000  0.30017881
   0.12425774  0.50000000  0.39480299
   0.05012326  0.50016523  0.47996448
   0.76405072  0.50010254  0.44711984
   0.90950676  0.33352561  0.42664767
   0.76411551  0.33419000  0.51995585
   0.54898679  0.33402243  0.47963576
   0.26369193  0.33354697  0.44793593
   0.40862591  0.50006241  0.42661033
   0.26552960  0.50011242  0.52189780
   0.19321929  0.50025393  0.60762901
   0.90425927  0.50020438  0.57335546
   0.05149721  0.33377814  0.55305380
   0.91358257  0.33227987  0.64506244
   0.69402391  0.33088927  0.60530179
   0.40471562  0.33369015  0.57480167
   0.55070361  0.50015594  0.55384846
   0.41338806  0.50032682  0.64897714
   0.34476589  0.50018092  0.73419336
   0.05149448  0.50024305  0.70840187
   0.19461174  0.33404591  0.68094515
   0.84085994  0.33965562  0.73060552
   0.55416314  0.33194743  0.70769298
   0.69256911  0.50024570  0.67517665
 
 position of ions in cartesian coordinates  (Angst):
   8.29920622  9.47400868  8.23547604
   6.08022791  7.57920695  9.11606995
   3.16232825  7.57920695  8.23547604
   0.94334994  9.47400868  9.11606995
   9.70804200  9.47696071 11.79939037
   7.46680384  7.57572800 12.59375520
   4.56313400  7.57772336 11.79452333
   2.31690552  9.47425967 12.60945865
   0.88581178  9.47972695 15.36542882
   8.89061201  7.57665446 16.05892641
   6.00361084  7.58011713 15.33207221
   3.73969511  9.47662621 16.10028871
   2.37420064  9.46847541 19.00448467
   0.00061097  7.57079351 19.54914180
   7.48718721  7.56984247 18.89698862
   5.17131112  9.48586338 19.55487624
   8.29920622  1.89480174  8.23547604
   6.08022791  0.00000000  9.11606995
   3.16232825  0.00000000  8.23547604
   0.94334994  1.89480174  9.11606995
   9.70774585  1.89443376 11.79933724
   7.45840197  0.00120818 12.59925725
   4.56505997  0.00070701 11.79887886
   2.31702066  1.89600268 12.60911967
   0.88554547  1.89425821 15.36502892
   8.87554162  0.00249345 16.07756247
   6.01053050  0.00188139 15.34966862
   3.73943571  1.89581220 16.10015664
   2.37400463  1.90629117 19.00428507
   0.02795649  0.00320260 19.54921796
   7.52088606  0.00202043 18.97288757
   5.17094043  1.88638010 19.55435478
   8.29920622  5.68440521  8.23547604
   6.08022791  3.78960347  9.11606995
   3.16232825  3.78960347  8.23547604
   0.94334994  5.68440521  9.11606995
   9.72334656  5.68586383 11.79346628
   7.46717821  3.79564291 12.59351310
   4.56290287  3.79263898 11.79429578
   2.32112541  5.68514610 12.63846592
   0.91610982  5.68740002 15.37095748
   8.89151331  3.79737424 16.05804276
   6.00290997  3.79240159 15.33113321
   3.76101081  5.68639349 16.18357559
   2.40874176  5.68699684 19.01769188
  10.27277093  3.80414400 19.54997689
   7.48558016  3.80344634 18.89296310
   5.18997553  5.68611534 19.72347009
   5.01562901  7.57920695  7.50000000
  10.15250698  9.47400868  7.50000000
   9.36380511  9.47400868  9.85154599
   6.44590546  9.47400868  8.97095207
   7.93352867  7.57920695  8.38059392
   6.41347169  7.57920695 11.02237567
   4.22692715  7.57920695  9.85154599
   1.30902750  7.57920695  8.97095207
   2.79665070  9.47400868  8.38059392
   1.27659372  9.47400868 11.02237567
   0.50804473  9.47722652 13.39339845
   7.84845636  9.47460833 12.49028831
   9.34415747  7.57922906 11.91136487
   7.85040122  7.57352335 14.51664220
   5.64034343  7.57404272 13.39081528
   2.70904872  7.57831812 12.50582095
   4.19729586  9.47343780 11.90996413
   2.71490719  9.47041248 14.54257009
   1.97947196  9.47283216 16.94236202
   9.28777227  9.47824237 15.99269126
   0.52919102  7.57908604 15.44066735
   9.38618663  7.59507665 18.00941542
   7.13013510  7.61116464 16.89978735
   4.15774733  7.57883383 16.04624635
   5.64173216  9.47609104 15.42836148
   4.23789349  9.48967499 18.04017220
   3.56013421  9.47180552 20.43546691
   0.53003281  9.46890013 19.78233829
   2.00040777  7.57673451 19.01208455
   8.64170917  7.51812644 20.39784084
   5.69519117  7.59928842 19.76540788
   7.13977108  9.48085942 18.95095177
   5.01562901  0.00000000  7.50000000
  10.15250698  1.89480174  7.50000000
   9.36380511  1.89480174  9.85154599
   6.44590546  1.89480174  8.97095207
   7.93352867  0.00000000  8.38059392
   6.41347169  0.00000000 11.02237567
   4.22692715  0.00000000  9.85154599
   1.30902750  0.00000000  8.97095207
   2.79665070  1.89480174  8.38059392
   1.27659372  1.89480174 11.02237567
   0.50797915  1.89509954 13.39324057
   7.84847708  1.89645502 12.49022814
   9.34077379  0.00106908 11.90997437
   7.84587814  0.00190151 14.52601323
   5.64107473  0.00119815 13.38835971
   2.70901207  0.00077204 12.50455594
   4.19727058  1.89680993 11.90979684
   2.71499234  1.90131997 14.54224421
   1.97922310  1.90138354 16.94202526
   9.28765004  1.89549001 15.99188625
   0.52813623  0.00227316 15.44464566
   9.38409383  0.00335702 18.02285938
   7.12114710  0.00242493 16.91651667
   4.14688316  0.00180433 16.02267239
   5.64125821  1.89644694 15.42779835
   4.23737359  1.88062570 18.03987375
   3.56019253  1.90336572 20.43511672
   0.52942698  1.90631333 19.78341033
   2.00007281  0.00313443 19.00467881
   8.68784812  0.00199921 20.42036611
   5.69379078  0.00181512 19.79404078
   7.14047843  1.89218516 18.95206613
   5.01562901  3.78960347  7.50000000
  10.15250698  5.68440521  7.50000000
   9.36380511  5.68440521  9.85154599
   6.44590546  5.68440521  8.97095207
   7.93352867  3.78960347  8.38059392
   6.41347169  3.78960347 11.02237567
   4.22692715  3.78960347  9.85154599
   1.30902750  3.78960347  8.97095207
   2.79665070  5.68440521  8.38059392
   1.27659372  5.68440521 11.02237567
   0.51495413  5.68628368 13.39997136
   7.84967058  5.68557095 12.48299272
   9.34405050  3.79178942 11.91143686
   7.85033621  3.79934281 14.51647721
   5.64015630  3.79743774 13.39079380
   2.70910655  3.79203223 12.50577675
   4.19812286  5.68511474 11.91039426
   2.72798632  5.68568333 14.57069407
   1.98508780  5.68729208 16.96419565
   9.29013907  5.68672881 16.00732357
   0.52906972  3.79466043 15.44052830
   9.38592437  3.77762681 18.00928746
   7.13023226  3.76181742 16.89922261
   4.15794954  3.79366009 16.04769985
   5.65779448  5.68617809 15.46271414
   4.24704808  5.68812075 18.11858062
   3.54204057  5.68646205 20.49770437
   0.52904171  5.68716842 19.77764012
   1.99939348  3.79770463 19.01108495
   8.63878983  3.86148030 20.39753654
   5.69333686  3.77384739 19.75784900
   7.11528600  5.68719850 18.85003606
 


--------------------------------------------------------------------------------------------------------

--------------------------------------- Iteration      FINAL  ---------------------------------------


--------------------OUTCAR has been truncated-------------------------


--------------------OUTCAR has been truncated-------------------------


--------------------OUTCAR has been truncated-------------------------


--------------------OUTCAR has been truncated-------------------------


--------------------OUTCAR has been truncated-------------------------


--------------------OUTCAR has been truncated-------------------------


--------------------OUTCAR has been truncated-------------------------


--------------------OUTCAR has been truncated-------------------------


--------------------OUTCAR has been truncated-------------------------


--------------------OUTCAR has been truncated-------------------------


  FORCE on cell =-STRESS in cart. coord.  units (eV):
  Direction    XX          YY          ZZ          XY          YZ          ZX
  --------------------------------------------------------------------------------------
  Alpha Z  2415.09386  2415.09386  2415.09386
  Ewald  488870.43015482429.01627************    -1.26174     5.67341 -1907.51004
  Hartree509783.10419505870.41506************    -0.69784     2.85810 -1282.83303
  E(xc)   -5159.81229 -5160.37253 -5158.88656    -0.00105     0.00374    -0.31091
  Local  ************************************     1.96804    -8.46342  3200.10332
  n-local -3299.49815 -3265.50282 -3309.43655    -0.00506     0.04211     1.93598
  augment  3147.42033  3145.18969  3137.08631    -0.00208     0.01116    -1.19099
  Kinetic 17008.22690 17066.87278 17112.00083    -0.01268    -0.25240   -17.18584
  Fock        0.00000     0.00000     0.00000     0.00000     0.00000     0.00000
  -------------------------------------------------------------------------------------
  Total     -36.94684    -5.05301    -6.36749    -0.01241    -0.12730    -6.99152
  in kB     -18.15302    -2.48269    -3.12852    -0.00610    -0.06255    -3.43513
  external pressure =       -7.92 kB  Pullay stress =        0.00 kB


 VOLUME and BASIS-vectors are now :
 -----------------------------------------------------------------------------
  energy-cutoff  :      600.00
  volume of cell :     3260.91
      direct lattice vectors                 reciprocal lattice vectors
    10.273755933  0.000000000  0.000000000     0.097335386 -0.000000000  0.000000000
     0.000000000 11.368810418  0.000000000     0.000000000  0.087959950  0.000000000
     0.000000000  0.000000000 27.918672987     0.000000000  0.000000000  0.035818321

  length of vectors
    10.273755933 11.368810418 27.918672987     0.097335386  0.087959950  0.035818321


 FORCES acting on ions:
    Electron-Ion                     Ewald-Force                    Non-Local-Force
 -----------------------------------------------------------------------------------------------
   0.647E+01 -.152E-01 0.337E+04   -.164E+01 0.200E-01 -.337E+04   -.104E+01 -.911E-03 -.311E+01
   0.501E+01 -.115E+00 0.277E+04   -.653E+01 0.120E+00 -.277E+04   -.117E+00 -.125E-02 -.106E+00
   0.639E+01 0.190E+00 0.337E+04   -.159E+01 -.190E+00 -.336E+04   -.103E+01 0.370E-03 -.311E+01
   0.333E+01 0.175E+00 0.277E+04   -.489E+01 -.179E+00 -.277E+04   -.108E+00 0.124E-02 -.112E+00
   0.464E-01 0.233E+00 0.124E+04   -.231E+00 -.235E+00 -.125E+04   0.179E+00 0.436E-03 0.269E-01
   0.192E+01 -.144E+01 0.782E+03   -.184E+01 0.143E+01 -.781E+03   -.476E-01 0.189E-01 -.163E+00
   0.169E+01 0.772E-01 0.125E+04   -.184E+01 -.756E-01 -.125E+04   0.160E+00 0.661E-02 0.400E-03
   -.657E+01 0.902E+00 0.771E+03   0.665E+01 -.900E+00 -.771E+03   -.329E-01 0.186E-02 -.157E+00
   -.521E+01 0.179E+00 -.813E+03   0.488E+01 -.183E+00 0.813E+03   0.317E+00 0.294E-02 0.121E+00
   -.899E+01 0.313E+00 -.121E+04   0.922E+01 -.259E+00 0.121E+04   -.109E+00 -.345E-01 -.265E+00
   0.181E+01 0.186E+01 -.786E+03   -.199E+01 -.183E+01 0.786E+03   0.246E+00 -.346E-02 0.821E-01
   -.420E+01 0.242E+01 -.124E+04   0.441E+01 -.237E+01 0.124E+04   -.124E+00 -.175E-01 -.287E+00
   0.227E+02 -.155E+01 -.282E+04   -.238E+02 0.158E+01 0.282E+04   0.100E+01 0.847E-02 -.100E+00
   -.660E+02 -.868E+01 -.321E+04   0.660E+02 0.850E+01 0.321E+04   -.454E-01 0.163E+00 0.595E+00
   0.103E+02 -.739E+01 -.277E+04   -.106E+02 0.754E+01 0.277E+04   0.791E+00 -.330E-01 -.138E-01
   -.721E+02 -.274E+01 -.321E+04   0.725E+02 0.294E+01 0.321E+04   -.783E-01 -.482E-01 0.636E+00
   0.647E+01 0.248E-01 0.337E+04   -.164E+01 -.296E-01 -.337E+04   -.104E+01 0.105E-02 -.311E+01
   0.493E+01 0.206E-01 0.277E+04   -.648E+01 -.213E-01 -.277E+04   -.109E+00 0.267E-03 -.115E+00
   0.626E+01 0.104E-01 0.337E+04   -.143E+01 -.108E-01 -.336E+04   -.103E+01 0.903E-04 -.311E+01
   0.334E+01 -.139E+00 0.277E+04   -.490E+01 0.141E+00 -.277E+04   -.108E+00 -.307E-03 -.112E+00
   -.711E-01 -.356E+00 0.125E+04   -.108E+00 0.351E+00 -.125E+04   0.178E+00 0.414E-02 0.265E-01
   -.177E+01 0.510E-02 0.777E+03   0.183E+01 -.774E-02 -.777E+03   -.144E-01 0.729E-03 -.168E+00
   0.181E+01 -.355E-01 0.125E+04   -.198E+01 0.334E-01 -.125E+04   0.168E+00 0.157E-02 0.102E-01
   -.649E+01 -.754E+00 0.771E+03   0.657E+01 0.752E+00 -.771E+03   -.323E-01 -.305E-02 -.158E+00
   -.541E+01 -.271E+00 -.813E+03   0.508E+01 0.270E+00 0.813E+03   0.316E+00 0.416E-03 0.121E+00
   -.914E+01 0.104E-01 -.122E+04   0.934E+01 -.959E-02 0.122E+04   -.833E-01 -.371E-03 -.268E+00
   -.153E+01 -.657E-02 -.802E+03   0.126E+01 0.559E-02 0.801E+03   0.294E+00 0.605E-03 0.146E+00
   -.411E+01 -.248E+01 -.123E+04   0.432E+01 0.243E+01 0.124E+04   -.124E+00 0.191E-01 -.288E+00
   0.230E+02 0.108E+01 -.282E+04   -.241E+02 -.112E+01 0.282E+04   0.100E+01 -.628E-02 -.998E-01
   -.692E+02 -.234E+00 -.321E+04   0.696E+02 0.235E+00 0.321E+04   -.114E+00 0.861E-04 0.613E+00
   0.146E+02 -.302E-01 -.281E+04   -.155E+02 0.342E-01 0.281E+04   0.895E+00 -.212E-02 -.419E-01
   -.725E+02 0.291E+01 -.321E+04   0.729E+02 -.312E+01 0.321E+04   -.792E-01 0.479E-01 0.642E+00
   0.647E+01 -.345E-02 0.337E+04   -.163E+01 0.398E-02 -.337E+04   -.103E+01 -.308E-04 -.310E+01
   0.501E+01 0.126E+00 0.277E+04   -.652E+01 -.131E+00 -.277E+04   -.118E+00 0.164E-02 -.106E+00
   0.640E+01 -.198E+00 0.337E+04   -.160E+01 0.198E+00 -.336E+04   -.103E+01 -.409E-03 -.311E+01
   0.233E+01 0.118E-01 0.277E+04   -.384E+01 -.123E-01 -.277E+04   -.128E+00 0.416E-03 -.101E+00
   0.894E+00 -.610E-01 0.124E+04   -.109E+01 0.594E-01 -.124E+04   0.170E+00 0.135E-02 0.603E-01
   0.214E+01 0.141E+01 0.782E+03   -.206E+01 -.141E+01 -.782E+03   -.479E-01 -.195E-01 -.163E+00
   0.157E+01 -.176E+00 0.125E+04   -.172E+01 0.171E+00 -.125E+04   0.159E+00 -.410E-02 -.838E-04
   -.943E+01 0.765E-01 0.753E+03   0.953E+01 -.750E-01 -.753E+03   -.522E-01 -.105E-02 -.453E-01
   -.194E+01 -.227E-01 -.819E+03   0.156E+01 0.197E-01 0.819E+03   0.273E+00 0.116E-02 0.147E+00
   -.878E+01 -.451E+00 -.121E+04   0.901E+01 0.393E+00 0.121E+04   -.108E+00 0.362E-01 -.262E+00
   0.177E+01 -.183E+01 -.786E+03   -.194E+01 0.180E+01 0.786E+03   0.241E+00 0.339E-02 0.797E-01
   -.815E+01 0.203E+00 -.128E+04   0.829E+01 -.202E+00 0.128E+04   -.124E+00 -.174E-02 0.938E-02
   0.266E+02 0.941E-01 -.283E+04   -.280E+02 -.941E-01 0.283E+04   0.940E+00 -.545E-03 -.874E-02
   -.657E+02 0.905E+01 -.322E+04   0.656E+02 -.886E+01 0.322E+04   -.379E-01 -.168E+00 0.602E+00
   0.966E+01 0.785E+01 -.277E+04   -.996E+01 -.800E+01 0.277E+04   0.784E+00 0.329E-01 -.110E-01
   -.849E+02 -.606E-02 -.331E+04   0.841E+02 0.239E-01 0.331E+04   0.466E+00 -.275E-02 0.207E+01
   -.322E+02 0.107E-01 0.228E+04   0.370E+02 -.915E-02 -.229E+04   -.650E+01 -.196E-02 0.171E+02
   -.326E+02 0.119E-01 0.228E+04   0.373E+02 -.121E-01 -.230E+04   -.649E+01 0.245E-03 0.171E+02
   0.816E+02 0.166E+00 0.138E+04   -.863E+02 -.188E+00 -.137E+04   0.378E+01 0.217E-01 -.448E+01
   0.750E+02 -.275E-01 0.168E+04   -.819E+02 0.315E-01 -.168E+04   0.730E+01 -.825E-02 -.262E+01
   -.862E+02 -.558E-01 0.194E+04   0.934E+02 0.567E-01 -.194E+04   -.695E+01 -.390E-02 -.565E-01
   -.687E+02 -.665E+00 0.105E+04   0.742E+02 0.696E+00 -.105E+04   -.563E+01 -.252E-01 0.422E+01
   0.823E+02 0.168E+00 0.138E+04   -.870E+02 -.158E+00 -.137E+04   0.374E+01 -.117E-01 -.430E+01
   0.739E+02 0.120E+00 0.168E+04   -.808E+02 -.124E+00 -.168E+04   0.732E+01 0.111E-01 -.263E+01
   -.865E+02 0.686E-01 0.194E+04   0.936E+02 -.659E-01 -.194E+04   -.692E+01 -.904E-02 -.622E-01
   -.738E+02 0.481E+00 0.105E+04   0.797E+02 -.503E+00 -.106E+04   -.583E+01 0.198E-01 0.435E+01
   0.786E+02 -.182E+00 0.143E+03   -.851E+02 0.195E+00 -.138E+03   0.647E+01 -.140E-01 -.510E+01
   0.806E+02 0.235E+00 0.472E+03   -.872E+02 -.296E+00 -.469E+03   0.661E+01 0.611E-01 -.299E+01
   -.806E+02 -.144E+00 0.739E+03   0.871E+02 0.198E+00 -.741E+03   -.653E+01 -.571E-01 0.268E+01
   -.634E+02 0.112E+01 -.141E+03   0.680E+02 -.121E+01 0.136E+03   -.474E+01 0.860E-01 0.514E+01
   0.795E+02 0.187E+01 0.151E+03   -.856E+02 -.196E+01 -.147E+03   0.609E+01 0.811E-01 -.403E+01
   0.768E+02 0.971E+00 0.466E+03   -.832E+02 -.926E+00 -.463E+03   0.642E+01 -.525E-01 -.291E+01
   -.784E+02 0.375E+00 0.739E+03   0.848E+02 -.375E+00 -.742E+03   -.635E+01 -.165E-02 0.271E+01
   -.684E+02 0.231E+01 -.146E+03   0.735E+02 -.244E+01 0.140E+03   -.520E+01 0.132E+00 0.566E+01
   0.811E+02 0.716E+00 -.110E+04   -.872E+02 -.751E+00 0.111E+04   0.611E+01 0.285E-01 -.737E+01
   0.792E+02 -.381E+00 -.736E+03   -.859E+02 0.245E+00 0.739E+03   0.676E+01 0.134E+00 -.311E+01
   -.816E+02 0.123E+00 -.479E+03   0.879E+02 -.132E-02 0.476E+03   -.633E+01 -.140E+00 0.271E+01
   -.603E+02 -.648E+01 -.131E+04   0.626E+02 0.708E+01 0.130E+04   -.254E+01 -.606E+00 0.953E+01
   0.824E+02 -.868E+01 -.107E+04   -.885E+02 0.943E+01 0.108E+04   0.615E+01 -.777E+00 -.568E+01
   0.779E+02 0.984E+00 -.756E+03   -.842E+02 -.827E+00 0.760E+03   0.634E+01 -.203E+00 -.324E+01
   -.768E+02 0.224E+00 -.472E+03   0.830E+02 -.248E+00 0.469E+03   -.621E+01 0.120E-01 0.279E+01
   -.499E+02 -.279E+01 -.131E+04   0.515E+02 0.304E+01 0.130E+04   -.171E+01 -.268E+00 0.953E+01
   0.463E+02 -.107E+01 -.230E+04   -.513E+02 0.103E+01 0.232E+04   0.507E+01 0.331E-01 -.211E+02
   0.646E+02 0.139E+01 -.203E+04   -.694E+02 -.151E+01 0.204E+04   0.493E+01 0.175E+00 -.785E+01
   -.539E+02 -.825E+00 -.168E+04   0.585E+02 0.766E+00 0.167E+04   -.451E+01 -.208E-01 0.294E+01
   0.519E+02 0.451E+01 -.229E+04   -.580E+02 -.550E+01 0.231E+04   0.631E+01 0.111E+01 -.207E+02
   0.565E+02 -.141E+01 -.202E+04   -.610E+02 0.173E+01 0.203E+04   0.445E+01 -.825E+00 -.643E+01
   -.634E+02 0.191E+01 -.166E+04   0.689E+02 -.229E+01 0.166E+04   -.560E+01 0.377E+00 0.316E+01
   -.323E+02 0.378E-02 0.228E+04   0.370E+02 -.398E-02 -.229E+04   -.650E+01 0.217E-03 0.171E+02
   -.326E+02 -.864E-02 0.228E+04   0.373E+02 0.859E-02 -.230E+04   -.649E+01 -.421E-04 0.171E+02
   0.816E+02 -.657E-01 0.138E+04   -.863E+02 0.609E-01 -.137E+04   0.378E+01 0.893E-02 -.448E+01
   0.750E+02 0.267E-01 0.168E+04   -.819E+02 -.305E-01 -.168E+04   0.730E+01 0.843E-02 -.262E+01
   -.862E+02 0.443E-02 0.194E+04   0.934E+02 -.457E-02 -.194E+04   -.694E+01 0.420E-03 -.636E-01
   -.695E+02 0.116E+00 0.105E+04   0.751E+02 -.135E+00 -.106E+04   -.566E+01 0.211E-01 0.430E+01
   0.818E+02 0.399E-01 0.138E+04   -.865E+02 -.474E-01 -.137E+04   0.372E+01 0.877E-02 -.443E+01
   0.741E+02 0.682E-03 0.168E+04   -.811E+02 -.552E-03 -.168E+04   0.732E+01 0.122E-03 -.261E+01
   -.865E+02 -.620E-01 0.194E+04   0.936E+02 0.591E-01 -.194E+04   -.692E+01 0.976E-02 -.619E-01
   -.738E+02 -.239E+00 0.105E+04   0.795E+02 0.226E+00 -.106E+04   -.582E+01 0.196E-01 0.435E+01
   0.785E+02 0.630E-01 0.143E+03   -.850E+02 -.644E-01 -.138E+03   0.646E+01 0.199E-02 -.509E+01
   0.807E+02 -.259E+00 0.472E+03   -.873E+02 0.328E+00 -.469E+03   0.662E+01 -.706E-01 -.300E+01
   -.788E+02 -.190E-01 0.739E+03   0.852E+02 0.277E-01 -.742E+03   -.638E+01 -.916E-02 0.270E+01
   -.655E+02 0.312E-01 -.143E+03   0.704E+02 -.305E-01 0.137E+03   -.499E+01 -.147E-02 0.542E+01
   0.785E+02 0.973E-02 0.147E+03   -.847E+02 -.109E-01 -.143E+03   0.618E+01 0.145E-02 -.477E+01
   0.771E+02 0.213E-01 0.466E+03   -.835E+02 -.235E-01 -.463E+03   0.641E+01 0.140E-02 -.308E+01
   -.785E+02 -.335E+00 0.739E+03   0.848E+02 0.336E+00 -.742E+03   -.636E+01 0.786E-06 0.272E+01
   -.683E+02 -.221E+01 -.146E+03   0.735E+02 0.234E+01 0.140E+03   -.520E+01 -.121E+00 0.567E+01
   0.811E+02 -.913E+00 -.110E+04   -.872E+02 0.960E+00 0.111E+04   0.611E+01 -.420E-01 -.737E+01
   0.793E+02 0.447E+00 -.735E+03   -.860E+02 -.307E+00 0.738E+03   0.678E+01 -.143E+00 -.311E+01
   -.784E+02 -.786E-01 -.483E+03   0.845E+02 0.918E-01 0.480E+03   -.608E+01 -.122E-01 0.253E+01
   -.563E+02 -.162E+00 -.131E+04   0.584E+02 0.180E+00 0.130E+04   -.221E+01 -.188E-01 0.968E+01
   0.811E+02 -.535E-01 -.109E+04   -.873E+02 0.592E-01 0.110E+04   0.618E+01 -.601E-02 -.734E+01
   0.781E+02 0.216E-01 -.748E+03   -.844E+02 -.200E-01 0.751E+03   0.635E+01 -.312E-02 -.325E+01
   -.768E+02 -.196E+00 -.471E+03   0.829E+02 0.218E+00 0.469E+03   -.621E+01 -.103E-01 0.280E+01
   -.498E+02 0.339E+01 -.131E+04   0.515E+02 -.371E+01 0.130E+04   -.171E+01 0.331E+00 0.954E+01
   0.463E+02 0.684E+00 -.230E+04   -.513E+02 -.611E+00 0.232E+04   0.508E+01 -.616E-01 -.211E+02
   0.645E+02 -.155E+01 -.203E+04   -.693E+02 0.168E+01 0.204E+04   0.490E+01 -.188E+00 -.785E+01
   -.606E+02 0.642E-01 -.167E+04   0.662E+02 -.742E-01 0.167E+04   -.565E+01 0.973E-02 0.320E+01
   0.467E+02 -.353E-01 -.230E+04   -.519E+02 0.246E-01 0.232E+04   0.529E+01 0.978E-02 -.212E+02
   0.554E+02 -.119E+00 -.204E+04   -.596E+02 0.120E+00 0.205E+04   0.420E+01 0.151E-02 -.835E+01
   -.636E+02 -.198E+01 -.166E+04   0.691E+02 0.237E+01 0.166E+04   -.563E+01 -.386E+00 0.310E+01
   -.323E+02 -.133E-01 0.228E+04   0.370E+02 0.117E-01 -.230E+04   -.650E+01 0.184E-02 0.171E+02
   -.326E+02 -.916E-03 0.228E+04   0.373E+02 0.991E-03 -.230E+04   -.651E+01 -.157E-03 0.171E+02
   0.822E+02 0.535E-01 0.138E+04   -.871E+02 -.675E-01 -.137E+04   0.390E+01 0.159E-01 -.446E+01
   0.751E+02 -.104E-01 0.168E+04   -.820E+02 0.108E-01 -.168E+04   0.730E+01 -.574E-03 -.262E+01
   -.862E+02 0.496E-01 0.194E+04   0.934E+02 -.503E-01 -.194E+04   -.695E+01 0.343E-02 -.562E-01
   -.687E+02 0.889E+00 0.105E+04   0.742E+02 -.959E+00 -.105E+04   -.563E+01 0.686E-01 0.422E+01
   0.823E+02 -.127E+00 0.138E+04   -.870E+02 0.101E+00 -.137E+04   0.374E+01 0.308E-01 -.429E+01
   0.739E+02 -.137E+00 0.168E+04   -.808E+02 0.141E+00 -.168E+04   0.732E+01 -.119E-01 -.263E+01
   -.864E+02 -.649E-02 0.194E+04   0.936E+02 0.676E-02 -.194E+04   -.691E+01 -.723E-03 -.765E-01
   -.814E+02 0.127E+00 0.105E+04   0.880E+02 -.145E+00 -.105E+04   -.663E+01 0.200E-01 0.412E+01
   0.823E+02 -.720E-01 0.141E+03   -.894E+02 0.772E-01 -.136E+03   0.715E+01 -.584E-02 -.511E+01
   0.778E+02 -.776E-01 0.477E+03   -.841E+02 0.841E-01 -.474E+03   0.626E+01 -.624E-02 -.274E+01
   -.807E+02 -.353E-01 0.739E+03   0.873E+02 0.793E-02 -.741E+03   -.655E+01 0.301E-01 0.268E+01
   -.632E+02 -.116E+01 -.141E+03   0.679E+02 0.125E+01 0.136E+03   -.472E+01 -.934E-01 0.512E+01
   0.794E+02 -.192E+01 0.151E+03   -.855E+02 0.201E+01 -.147E+03   0.608E+01 -.835E-01 -.399E+01
   0.769E+02 -.101E+01 0.466E+03   -.833E+02 0.964E+00 -.463E+03   0.642E+01 0.542E-01 -.292E+01
   -.753E+02 -.415E-01 0.739E+03   0.814E+02 0.453E-01 -.741E+03   -.611E+01 -.346E-02 0.276E+01
   -.821E+02 0.174E+00 -.161E+03   0.889E+02 -.186E+00 0.156E+03   -.674E+01 0.122E-01 0.489E+01
   0.858E+02 -.293E-01 -.110E+04   -.928E+02 0.374E-01 0.111E+04   0.712E+01 -.902E-02 -.717E+01
   0.722E+02 -.158E+00 -.741E+03   -.781E+02 0.172E+00 0.744E+03   0.598E+01 -.104E-01 -.319E+01
   -.819E+02 -.329E+00 -.479E+03   0.883E+02 0.239E+00 0.476E+03   -.636E+01 0.106E+00 0.271E+01
   -.605E+02 0.686E+01 -.131E+04   0.629E+02 -.750E+01 0.130E+04   -.257E+01 0.647E+00 0.952E+01
   0.823E+02 0.876E+01 -.107E+04   -.885E+02 -.952E+01 0.107E+04   0.615E+01 0.785E+00 -.558E+01
   0.779E+02 -.105E+01 -.757E+03   -.842E+02 0.897E+00 0.760E+03   0.633E+01 0.201E+00 -.328E+01
   -.736E+02 -.491E-01 -.488E+03   0.797E+02 0.538E-01 0.486E+03   -.615E+01 -.478E-02 0.230E+01
   -.700E+02 -.395E+00 -.135E+04   0.746E+02 0.433E+00 0.134E+04   -.435E+01 -.396E-01 0.840E+01
   0.602E+02 0.119E+00 -.230E+04   -.668E+02 -.116E+00 0.232E+04   0.701E+01 -.541E-02 -.202E+02
   0.559E+02 0.536E-01 -.203E+04   -.599E+02 -.514E-01 0.203E+04   0.417E+01 0.305E-02 -.761E+01
   -.536E+02 0.949E+00 -.168E+04   0.581E+02 -.896E+00 0.167E+04   -.446E+01 0.261E-01 0.296E+01
   0.523E+02 -.505E+01 -.229E+04   -.584E+02 0.615E+01 0.231E+04   0.637E+01 -.123E+01 -.207E+02
   0.569E+02 0.171E+01 -.202E+04   -.615E+02 -.205E+01 0.203E+04   0.449E+01 0.848E+00 -.629E+01
   -.430E+02 -.185E-02 -.161E+04   0.467E+02 -.903E-02 0.160E+04   -.408E+01 0.141E-01 0.584E+01
 -----------------------------------------------------------------------------------------------
   -.147E+02 0.120E-01 0.639E+02   0.341E-12 -.546E-12 -.296E-11   0.147E+02 -.150E-01 -.638E+02
 
 
 POSITION                                       TOTAL-FORCE (eV/Angst)
 -----------------------------------------------------------------------------------
      8.29921      9.47401      8.23548         3.824026      0.003958      1.637608
      6.08023      7.57921      9.11607        -1.634608      0.003601     -1.976614
      3.16233      7.57921      8.23548         3.791068      0.000610      1.613809
      0.94335      9.47401      9.11607        -1.676433     -0.002783     -1.980590
      9.70804      9.47696     11.79939        -0.003064      0.000756     -0.042274
      7.46680      7.57573     12.59376         0.015819      0.006771      0.034153
      4.56313      7.57772     11.79452         0.005940      0.006260     -0.041638
      2.31691      9.47426     12.60946         0.019679      0.004832      0.020677
      0.88581      9.47973     15.36543        -0.014336      0.003319     -0.018631
      8.89061      7.57665     16.05893         0.067229      0.015623      0.163473
      6.00361      7.58012     15.33207         0.058323      0.026839     -0.013515
      3.73970      9.47663     16.10029         0.032433      0.031765      0.062063
      2.37420      9.46848     19.00448        -0.079168      0.037425      0.075104
      0.00061      7.57079     19.54914        -0.246103     -0.026225      0.344354
      7.48719      7.56984     18.89699         0.472412      0.102025      0.512992
      5.17131      9.48586     19.55488         0.088936      0.151140      0.155868
      8.29921      1.89480      8.23548         3.823475     -0.003747      1.637001
      6.08023      0.00000      9.11607        -1.659434     -0.000376     -1.973302
      3.16233      0.00000      8.23548         3.815981     -0.000226      1.630571
      0.94335      1.89480      9.11607        -1.675908      0.001914     -1.980478
      9.70775      1.89443     11.79934         0.000429     -0.003113     -0.041849
      7.45840      0.00121     12.59926         0.021290     -0.001864      0.032061
      4.56506      0.00071     11.79888         0.004328     -0.000548     -0.042347
      2.31702      1.89600     12.60912         0.018134     -0.005674      0.022830
      0.88555      1.89426     15.36503        -0.012660     -0.004574     -0.018361
      8.87554      0.00249     16.07756         0.057384      0.000464      0.109109
      6.01053      0.00188     15.34967         0.023754     -0.000385     -0.007940
      3.73944      1.89581     16.10016         0.030276     -0.032186      0.058934
      2.37400      1.90629     19.00429        -0.087153     -0.035022      0.073041
      0.02796      0.00320     19.54922         0.057963      0.001476      0.187075
      7.52089      0.00202     18.97289         0.053321      0.001900      0.104353
      5.17094      1.88638     19.55435         0.091295     -0.158543      0.148493
      8.29921      5.68441      8.23548         3.828598      0.000517      1.627873
      6.08023      3.78960      9.11607        -1.633184     -0.003683     -1.976306
      3.16233      3.78960      8.23548         3.790080      0.000059      1.612655
      0.94335      5.68441      9.11607        -1.644135     -0.000054     -1.923683
      9.72335      5.68586     11.79347        -0.014923     -0.000028     -0.045318
      7.46718      3.79564     12.59351         0.013534     -0.006965      0.036191
      4.56290      3.79264     11.79430         0.007923     -0.006330     -0.041514
      2.32113      5.68515     12.63847         0.011995      0.000509     -0.029295
      0.91611      5.68740     15.37096        -0.091133     -0.001361     -0.053911
      8.89151      3.79737     16.05804         0.064704     -0.017807      0.168526
      6.00291      3.79240     15.33113         0.062131     -0.026436     -0.012927
      3.76101      5.68639     16.18358        -0.031505      0.000257     -0.230530
      2.40874      5.68700     19.01769        -0.460443     -0.000610     -0.041341
     10.27277      3.80414     19.54998        -0.272751      0.025841      0.350701
      7.48558      3.80345     18.89296         0.498552     -0.096405      0.539344
      5.18998      5.68612     19.72347        -0.540297      0.014572     -1.638736
      5.01563      7.57921      7.50000        -1.794969     -0.000347      1.044966
     10.15251      9.47401      7.50000        -1.787549      0.000046      1.038775
      9.36381      9.47401      9.85155        -0.957217      0.000144     -0.191804
      6.44591      9.47401      8.97095         0.393239     -0.004159     -0.067081
      7.93353      7.57921      8.38059         0.222151     -0.003020     -1.041008
      6.41347      7.57921     11.02238        -0.120373      0.006394      0.391276
      4.22693      7.57921      9.85155        -0.967262     -0.001394     -0.179654
      1.30903      7.57921      8.97095         0.404875      0.007343     -0.073835
      2.79665      9.47401      8.38059         0.233526     -0.006355     -1.043855
      1.27659      9.47401     11.02238        -0.026525     -0.001630      0.466965
      0.50804      9.47723     13.39340         0.026429     -0.001472      0.024775
      7.84846      9.47461     12.49029         0.027374     -0.000102     -0.003482
      9.34416      7.57923     11.91136        -0.024922     -0.002866      0.007877
      7.85040      7.57352     14.51664        -0.073252     -0.002056     -0.057065
      5.64034      7.57404     13.39082         0.023667     -0.002107      0.012125
      2.70905      7.57832     12.50582         0.024884     -0.007563     -0.001484
      4.19730      9.47344     11.90996        -0.029414     -0.001601      0.010611
      2.71491      9.47041     14.54257        -0.040761     -0.004224     -0.043226
      1.97947      9.47283     16.94236         0.042210     -0.005789      0.052191
      9.28777      9.47824     15.99269         0.030657     -0.002743     -0.010484
      0.52919      7.57909     15.44067        -0.018968     -0.018288     -0.004074
      9.38619      7.59508     18.00942        -0.151997     -0.008553     -0.215874
      7.13014      7.61116     16.89979        -0.025403     -0.020801     -0.008164
      4.15775      7.57883     16.04625         0.007545     -0.045868      0.019608
      5.64173      9.47609     15.42836        -0.043107     -0.011976      0.007342
      4.23789      9.48967     18.04017        -0.078613     -0.012376     -0.064069
      3.56013      9.47181     20.43547         0.049874     -0.009998     -0.052339
      0.53003      9.46890     19.78234         0.094064      0.047901     -0.047878
      2.00041      7.57673     19.01208         0.075305     -0.079219     -0.002715
      8.64171      7.51813     20.39784         0.181499      0.113581     -0.479783
      5.69519      7.59929     19.76541        -0.095395     -0.510111      0.270551
      7.13977      9.48086     18.95095        -0.120479     -0.004389      0.011880
      5.01563      0.00000      7.50000        -1.791808      0.000035      1.040416
     10.15251      1.89480      7.50000        -1.787710     -0.000073      1.038927
      9.36381      1.89480      9.85155        -0.957318      0.004093     -0.191728
      6.44591      1.89480      8.97095         0.393287      0.004583     -0.067116
      7.93353      0.00000      8.38059         0.225544      0.000305     -1.043290
      6.41347      0.00000     11.02238        -0.099504      0.002609      0.395240
      4.22693      0.00000      9.85155        -0.965644      0.001271     -0.186842
      1.30903      0.00000      8.97095         0.399239      0.000273     -0.066986
      2.79665      1.89480      8.38059         0.233571      0.006885     -1.043766
      1.27659      1.89480     11.02238        -0.027561      0.005865      0.464675
      0.50798      1.89510     13.39324         0.026882      0.000565      0.024882
      7.84848      1.89646     12.49023         0.026413     -0.001241     -0.003091
      9.34077      0.00107     11.90997        -0.029245     -0.000421      0.010165
      7.84588      0.00190     14.52601        -0.059565     -0.000710     -0.052908
      5.64107      0.00120     13.38836         0.024304      0.000274      0.016145
      2.70901      0.00077     12.50456         0.027905     -0.000801     -0.001744
      4.19727      1.89681     11.90980        -0.028865      0.000987      0.010732
      2.71499      1.90132     14.54224        -0.041224      0.004401     -0.040865
      1.97922      1.90138     16.94203         0.042115      0.005210      0.052535
      9.28765      1.89549     15.99189         0.031956     -0.002408     -0.011322
      0.52814      0.00227     15.44465        -0.032239      0.001086      0.002746
      9.38409      0.00336     18.02286        -0.117364     -0.001373     -0.099799
      7.12115      0.00242     16.91652         0.016279     -0.000286      0.033397
      4.14688      0.00180     16.02267         0.020748     -0.001458      0.001903
      5.64126      1.89645     15.42780        -0.041790      0.011927      0.008193
      4.23737      1.88063     18.03987        -0.077484      0.013857     -0.061354
      3.56019      1.90337     20.43512         0.051559      0.011198     -0.047970
      0.52943      1.90631     19.78341         0.096264     -0.054104     -0.048232
      2.00007      0.00313     19.00468        -0.022829     -0.000282      0.007368
      8.68785      0.00200     20.42037         0.013769     -0.000945     -0.098155
      5.69379      0.00182     19.79404        -0.010735      0.002462     -0.032100
      7.14048      1.89219     18.95207        -0.124006      0.001353      0.012638
      5.01563      3.78960      7.50000        -1.795259      0.000296      1.045173
     10.15251      5.68441      7.50000        -1.800069     -0.000061      1.029181
      9.36381      5.68441      9.85155        -0.970070      0.001918     -0.197425
      6.44591      5.68441      8.97095         0.391528     -0.000150     -0.066663
      7.93353      3.78960      8.38059         0.221993      0.002801     -1.040929
      6.41347      3.78960     11.02238        -0.120633     -0.001357      0.391492
      4.22693      3.78960      9.85155        -0.967544      0.004239     -0.179873
      1.30903      3.78960      8.97095         0.405078     -0.007400     -0.073853
      2.79665      5.68441      8.38059         0.237346     -0.000433     -1.048061
      1.27659      5.68441     11.02238         0.041119      0.001928      0.599525
      0.51495      5.68628     13.39997         0.036762     -0.000653      0.046536
      7.84967      5.68557     12.48299         0.032876      0.000322     -0.006771
      9.34405      3.79179     11.91144        -0.024066      0.002692      0.007158
      7.85034      3.79934     14.51648        -0.075194      0.000304     -0.060386
      5.64016      3.79744     13.39079         0.024025      0.002043      0.011621
      2.70911      3.79203     12.50578         0.024206      0.007891     -0.002014
      4.19812      5.68511     11.91039        -0.038542      0.000394      0.017692
      2.72799      5.68568     14.57069         0.028666     -0.000209      0.049104
      1.98509      5.68729     16.96420         0.120042     -0.000970      0.133879
      9.29014      5.68673     16.00732         0.053662      0.003875     -0.018746
      0.52907      3.79466     15.44053        -0.016036      0.016375     -0.005606
      9.38592      3.77763     18.00929        -0.151887      0.008085     -0.220249
      7.13023      3.76182     16.89922        -0.028044      0.021387     -0.013231
      4.15795      3.79366     16.04770         0.007361      0.046852      0.018601
      5.65779      5.68618     15.46271        -0.072504     -0.000041      0.031346
      4.24705      5.68812     18.11858         0.252095     -0.001281      0.614748
      3.54204      5.68646     20.49770         0.404231     -0.002836      0.201274
      0.52904      5.68717     19.77764         0.206939      0.005261     -0.087776
      1.99939      3.79770     19.01108         0.080556      0.079157     -0.002181
      8.63879      3.86148     20.39754         0.200976     -0.132396     -0.506735
      5.69334      3.77385     19.75785        -0.102218      0.509660      0.290708
      7.11529      5.68720     18.85004        -0.377201      0.003281      0.420942
 -----------------------------------------------------------------------------------
    total drift:                               -0.000743     -0.002982      0.070038


--------------------------------------------------------------------------------------------------------



  FREE ENERGIE OF THE ION-ELECTRON SYSTEM (eV)
  ---------------------------------------------------
  free  energy   TOTEN  =     -1043.93323367 eV

  energy  without entropy=    -1043.93323367  energy(sigma->0) =    -1043.93323367
 


--------------------------------------------------------------------------------------------------------


    POTLOK:  cpu time      0.6513: real time      0.6535


--------------------------------------------------------------------------------------------------------


     LOOP+:  cpu time    656.7766: real time    660.1634
    4ORBIT:  cpu time      0.0000: real time      0.0000

 total amount of memory used by VASP MPI-rank0   372436. kBytes
=======================================================================

   base      :      30000. kBytes
   nonl-proj :     204302. kBytes
   fftplans  :      29416. kBytes
   grid      :      41023. kBytes
   one-center:       1119. kBytes
   wavefun   :      66576. kBytes
 
  
  
 General timing and accounting informations for this job:
 ========================================================
  
                  Total CPU time used (sec):      684.911
                            User time (sec):      682.191
                          System time (sec):        2.720
                         Elapsed time (sec):      689.269
  
                   Maximum memory used (kb):      993688.
                   Average memory used (kb):          N/A
  
                          Minor page faults:        98012
                          Major page faults:          102
                 Voluntary context switches:         2716
