 **********************************************************************
                          MRCC program system
 **********************************************************************
 
                              Written by
     Mihaly Kallay, Peter R. Nagy, David Mester, Laszlo Gyevi-Nagy,
        Jozsef Csoka, P. Bernat Szabo, Zoltan Rolik, Gyula Samu,
     Jozsef Csontos, Bence Hegely, Adam Ganyecz, Istvan Ladjanszki,
       Lorant Szegedy, Bence Ladoczki, Klara Petrov, Mate Farkas,
                    Pal D. Mezei, and Reka A. Horvath
 
        Department of Physical Chemistry and Materials Science
            Budapest University of Technology and Economics
                  Budapest P.O.Box 91, H-1521 Hungary
 
                              www.mrcc.hu
 
                     Release date: August 28, 2023

 ************************ 2024-11-24 17:55:14 *************************
 Executing minp...

 Reading input from MINP...
 
 Input file:
 
calc=DF-CCSD(T)
scftype=rhf
verbosity=3
mem=150GB
symm=off
unit=angs
scfiguess=small
scfmaxit=1000
scfalg=locfit1


ccmaxit=400
ccsdalg=dfdirect
ccsdthreads=4
ccsdmkl=thr
ptthreads=4

charge=0
core=3

basis=aug-cc-pVQZ
basis_sm=def2-SVP
dfbasis_scf=def2-QZVPP-RI-JK
dfbasis_cor=aug-cc-pVQZ-RI

ecp=none

unit=angs
geom=xyz
3
CO2
C    0.00000000000    0.00000000000    0.00000000000
O    0.00000000000    0.00000000000   -1.16497000000
O    0.00000000000    0.00000000000    1.16497000000

ghost=serialno


 
 
 Checking keyword combinations...
 
 Keywords:
 
 active=none
--------------------Output has been truncated-------------------------


--------------------Output has been truncated-------------------------


--------------------Output has been truncated-------------------------


--------------------Output has been truncated-------------------------


--------------------Output has been truncated-------------------------


--------------------Output has been truncated-------------------------


--------------------Output has been truncated-------------------------


--------------------Output has been truncated-------------------------


--------------------Output has been truncated-------------------------


--------------------Output has been truncated-------------------------


 ************************ 2024-11-24 17:55:47 *************************
 Executing ccsd...

 Allocation of 150.0 Gbytes of memory...

 Direct DF-CCSD(T) calculation
 
 Convergence criterion:  1.0E-06
 
 Number of occupied/virtual/auxiliary orbitals:     8   229   504
   1812.03 MB is the minimal memory requirement for (T)
    311.57 MB is the minimal memory requirement for CCSD
 
 Reference energy [au]:            -187.720829836366
 T1 contribution [au]:                0.000000000000
 Same spin MP2 energy [au]:          -0.168875088644
 Opposite spin MP2 energy [au]:      -0.483810771691
 MP2 correlation energy [au]:        -0.652685860336
 Total MP2 energy [au]:            -188.373515696702
 
 
 CPU time [min]:     0.254                   Wall time [min]:     0.021
 
 Starting CCSD iterations...
 
                     Residual norm          Energy
 Iteration  1        0.284453858948     -188.334523935365
 Iteration  2        0.099636233066     -188.353768367008
 Iteration  3        0.026924002347     -188.358481730210
 Iteration  4        0.009136533668     -188.357616511893
 Iteration  5        0.002342437731     -188.357636943865
 Iteration  6        0.000484252128     -188.357639110549
 Iteration  7        0.000175499782     -188.357629679615
 Iteration  8        0.000043785562     -188.357629533308
 Iteration  9        0.000012713029     -188.357629575072
 Iteration 10        0.000003279872     -188.357629431455
 
 CCSD iteration has converged in 10 steps.
    10856.20 MB memory was utilized by CCSD
 
 T1 diagnostic:      1.774E-02            D1 diagnostic:      4.581E-02
 
 T1 contribution [au]:                                  0.000000000000
 Opposite spin CCSD energy [au]:                       -0.491731476262
 Same spin CCSD energy [au]:                           -0.145068118826
 CCSD correlation energy [au]:                         -0.636799595088
 Total CCSD energy [au]:                             -188.357629431455
 
 CPU time [min]:    15.970                   Wall time [min]:     0.463
 
 Calculation of (T) correction...
 
 
     1754.03 MB memory is utilized for (T)

 0%       25%       50%       75%       100%
 |---------|---------|---------|---------| 
 
 (T) correction [au]:                                    -0.031983581022
 CCSD(T) correlation energy [au]:                        -0.668783176110
 Total CCSD(T) energy [au]:                            -188.389613012477
 
 CPU time [min]:    22.074                   Wall time [min]:     0.672
 
 ************************ 2024-11-24 17:56:28 *************************
                      Normal termination of mrcc.
 **********************************************************************
