 **********************************************************************
                          MRCC program system
 **********************************************************************
 
                              Written by
     Mihaly Kallay, Peter R. Nagy, David Mester, Laszlo Gyevi-Nagy,
        Jozsef Csoka, P. Bernat Szabo, Zoltan Rolik, Gyula Samu,
     Jozsef Csontos, Bence Hegely, Adam Ganyecz, Istvan Ladjanszki,
       Lorant Szegedy, Bence Ladoczki, Klara Petrov, Mate Farkas,
                    Pal D. Mezei, and Reka A. Horvath
 
        Department of Physical Chemistry and Materials Science
            Budapest University of Technology and Economics
                  Budapest P.O.Box 91, H-1521 Hungary
 
                              www.mrcc.hu
 
                      Release date: March 18, 2022

 ************************ 2023-04-16 05:18:13 *************************
 Executing minp...

 Reading input from MINP...
 
 Input file:
 
calc=LNO-CCSD(T)
scftype=rhf
verbosity=3
mem=220GB
symm=off
unit=angs
scfiguess=small
scfmaxit=1000
scfalg=locfit1


lcorthr=tight
bpedo=0.99999
ccmaxit=400
usedisk=0
ccsdalg=dfdirect
ccsdthreads=4
ccsdmkl=thr
ptthreads=4

charge=0
core=1

basis=special
aug-cc-pVDZ
aug-cc-pVDZ
aug-cc-pVDZ
aug-cc-pVDZ
aug-cc-pVDZ
cc-pVDZ
aug-cc-pVDZ
aug-cc-pVDZ
aug-cc-pVDZ
aug-cc-pVDZ
aug-cc-pVDZ
cc-pVDZ
cc-pVDZ
aug-cc-pVDZ
aug-cc-pVDZ
aug-cc-pVDZ
aug-cc-pVDZ
aug-cc-pVDZ
aug-cc-pVDZ

basis_sm=special
def2-SVP
def2-SVP
def2-SVP
def2-SVP
def2-SVP
def2-SVP
def2-SVP
def2-SVP
def2-SVP
def2-SVP
def2-SVP
def2-SVP
def2-SVP
def2-SVP
def2-SVP
def2-SVP
def2-SVP
def2-SVP
def2-SVP

dfbasis_scf=special
def2-QZVPP-RI-JK
def2-QZVPP-RI-JK
def2-QZVPP-RI-JK
def2-QZVPP-RI-JK
def2-QZVPP-RI-JK
def2-QZVPP-RI-JK
def2-QZVPP-RI-JK
def2-QZVPP-RI-JK
def2-QZVPP-RI-JK
def2-QZVPP-RI-JK
def2-QZVPP-RI-JK
def2-QZVPP-RI-JK
def2-QZVPP-RI-JK
def2-QZVPP-RI-JK
def2-QZVPP-RI-JK
def2-QZVPP-RI-JK
def2-QZVPP-RI-JK
def2-QZVPP-RI-JK
def2-QZVPP-RI-JK

dfbasis_cor=special
aug-cc-pVDZ-RI
aug-cc-pVDZ-RI
aug-cc-pVDZ-RI
aug-cc-pVDZ-RI
aug-cc-pVDZ-RI
cc-pVDZ-RI
aug-cc-pVDZ-RI
aug-cc-pVDZ-RI
aug-cc-pVDZ-RI
aug-cc-pVDZ-RI
aug-cc-pVDZ-RI
cc-pVDZ-RI
cc-pVDZ-RI
aug-cc-pVDZ-RI
aug-cc-pVDZ-RI
aug-cc-pVDZ-RI
aug-cc-pVDZ-RI
aug-cc-pVDZ-RI
aug-cc-pVDZ-RI

ecp=special
none
none
none
none
none
none
none
none
none
none
none
none
none
none
none
none
none
none
none

unit=angs
geom=xyz
19
C1 H4 Ti3 O11 ECP59
C     0.00081705011    0.00002320526    1.72884400563
H    -0.05053213056    0.89633029753    2.35813838108
H     0.05226472379   -0.89631224347    2.35825565611
H     0.91773540605    0.05070703259    1.12689725392
H    -0.91630859930   -0.05082132031    1.12709961754
Ti    0.00000000000    0.00000000000   -1.43694122213
O    -0.00002936641   -0.00000124851   -3.25550860866
O    -1.22612024541    1.48550586123   -1.15098137904
O     1.22610246459   -1.48551652698   -1.15102871986
O    -1.22708949291   -1.48603818367   -1.15413241300
O     1.22707044266    1.48604777705   -1.15418645989
Ti    0.00006382473    2.95729500329   -1.46449325674
Ti   -0.00011340444   -2.95729489395   -1.46448961806
O    -0.00042064680    2.96207708598   -3.27054405457
O     0.00035833623   -2.96207616866   -3.27054068628
O     1.22366827881    4.43772223937   -1.13722109956
O    -1.22371508024   -4.43772515466   -1.13721930082
O    -1.22373058876    4.43790211149   -1.13715240187
O     1.22368462754   -4.43790030334   -1.13714876213

ghost=serialno
6-19

 
 
 Checking keyword combinations...
 
 Keywords:
 
 active=none
--------------------Output has been truncated-------------------------


--------------------Output has been truncated-------------------------


--------------------Output has been truncated-------------------------


--------------------Output has been truncated-------------------------


--------------------Output has been truncated-------------------------


--------------------Output has been truncated-------------------------


--------------------Output has been truncated-------------------------


--------------------Output has been truncated-------------------------


--------------------Output has been truncated-------------------------


--------------------Output has been truncated-------------------------


 
 Final local CC results:
 
 Minimum number of correlated electrons:         8       (100.0%)
 Maximum number of correlated electrons:         8       (100.0%)
 Average number of correlated electrons:         8.0     (100.0%)
 Minimum number of correlated orbitals:         49       ( 11.1%)
 Maximum number of correlated orbitals:         51       ( 11.6%)
 Average number of correlated orbitals:         50.0     ( 11.4%)
 
 CPU time for integral calculations [min]:                  3.428
 Wall time for integral calculations [min]:                 0.103
 
 CPU time for SCF calculation [min]:                        9.215
 Wall time for SCF calculation [min]:                       0.264
 
 CPU time for orbital localization [min]:                   0.123
 Wall time for orbital localization [min]:                  0.008
 
 CPU time for integral transformations [min]:              18.331
 Wall time for integral transformations [min]:              0.605
 
 Reference energy [au]:                                   -40.199417478167
 
 LMP2 correlation energy [au]:                             -0.169046158990
 Total LMP2 energy [au]:                                  -40.368463637157
 
 Total MP2 correction for dropped NAFs [au]:               -0.000048505317
 Total MP2 correction [au]:                                -0.000095329416
 
 CPU time for CCSD calculations [min]:                      0.432
 Total CPU time for CCSD [min]:                            31.530
 Wall time for CCSD calculations [min]:                     0.013
 Total wall time for CCSD [min]:                            0.992
 
 CCSD correlation energy [au]:                             -0.192487476598
 Total CCSD energy [au]:                                  -40.391904954765
 CCSD correlation energy + 0.5 MP2 corrections [au]:       -0.192535141306
 Total LNO-CCSD energy with MP2 corrections [au]:         -40.391952619473
 
 CPU time for (T) corrections [min]:                        0.146
 Total CPU time for CCSD(T) [min]:                         31.676
 Wall time for (T) corrections [min]:                       0.004
 Total wall time for CCSD(T) [min]:                         0.997
 
 Total (T) correlation energy contribution [au]:           -0.004602875685
 Total (T) correlation energy+0.5 MP2 correction [au]:     -0.004650540393
 CCSD(T) correlation energy [au]:                          -0.197090352283
 Total CCSD(T) energy [au]:                               -40.396507830450
 CCSD(T) correlation energy + MP2 corrections [au]:        -0.197185681699
 Total LNO-CCSD(T) energy with MP2 corrections [au]:      -40.396603159866
 
 ======================================================================
 ======================================================================
 
 ************************ 2023-04-16 05:19:31 *************************
                      Normal termination of mrcc.
 **********************************************************************
