 **********************************************************************
                          MRCC program system
 **********************************************************************
 
                              Written by
     Mihaly Kallay, Peter R. Nagy, David Mester, Laszlo Gyevi-Nagy,
        Jozsef Csoka, P. Bernat Szabo, Zoltan Rolik, Gyula Samu,
     Jozsef Csontos, Bence Hegely, Adam Ganyecz, Istvan Ladjanszki,
       Lorant Szegedy, Bence Ladoczki, Klara Petrov, Mate Farkas,
                    Pal D. Mezei, and Reka A. Horvath
 
        Department of Physical Chemistry and Materials Science
            Budapest University of Technology and Economics
                  Budapest P.O.Box 91, H-1521 Hungary
 
                              www.mrcc.hu
 
                      Release date: March 18, 2022

 ************************ 2023-02-04 11:44:33 *************************
 Executing minp...

 Reading input from MINP...
 
 Input file:
 
calc=FNO-CCSD(T)
verbosity=3
mem=220GB
unit=angs
scfiguess=small
scfalg=locfit1
ccmaxit=400
ccsdalg=dfdirect
ccsdthreads=4
ccsdmkl=thr
ptthreads=4
lnoepsv=1e-5
naf_cor=1e-2
basis=aug-cc-pVQZ
basis_sm=def2-SVP
dfbasis_scf=def2-QZVPP-RI-JK
dfbasis_cor=aug-cc-pVQZ-RI
unit=angs
geom=xyz
10

C    29.54344629    29.54344629    16.97505516
H    29.54344670    30.44187631    17.60392580
H    29.54344662    28.64496649    17.60393442
H    30.44658454    29.54342777    16.34911135
H    28.64030918    29.54342779    16.34911130
C    37.98440048    42.20489168    16.97524142
H    37.08590860    42.20489192    17.60416815
H    38.88294233    42.20489188    17.60417697
H    37.98441903    41.30209347    16.34882759
H    37.98441909    43.10769102    16.34882843

--------------------Output has been truncated-------------------------


--------------------Output has been truncated-------------------------


--------------------Output has been truncated-------------------------


--------------------Output has been truncated-------------------------


--------------------Output has been truncated-------------------------


--------------------Output has been truncated-------------------------


--------------------Output has been truncated-------------------------


--------------------Output has been truncated-------------------------


--------------------Output has been truncated-------------------------


--------------------Output has been truncated-------------------------


 
 Reference energy [au]:                       -40.215614173186
 DF-MP2 singlet pair energy [au]:              -0.173752857141
 DF-MP2 triplet pair energy [au]:              -0.037498360378
 DF-SCS-MP2 correlation energy [au]:           -0.221002882028
 DF-SCS-MP2 energy [au]:                      -40.436617055214
 DF-SOS-MP2 correlation energy [au]:           -0.225878714283
 DF-SOS-MP2 energy [au]:                      -40.441492887469
 DF-MP2 correlation energy [au]:               -0.211251217519
 DF-MP2 energy [au]:                          -40.426865390705

 Results in FNO basis:
 
 
 Reference energy [au]:                       -40.215614173186
 DF-MP2 singlet pair energy [au]:              -0.170618196041
 DF-MP2 triplet pair energy [au]:              -0.037357058661
 DF-SCS-MP2 correlation energy [au]:           -0.217194188136
 DF-SCS-MP2 energy [au]:                      -40.432808361322
 DF-SOS-MP2 correlation energy [au]:           -0.221803654853
 DF-SOS-MP2 energy [au]:                      -40.437417828039
 DF-MP2 correlation energy [au]:               -0.207975254702
 DF-MP2 energy [au]:                          -40.423589427888

 Results in NAF basis:
 
 
 Reference energy [au]:                       -40.215614173186
 DF-MP2 singlet pair energy [au]:              -0.170600636808
 DF-MP2 triplet pair energy [au]:              -0.037363751462
 DF-SCS-MP2 correlation energy [au]:           -0.217175347990
 DF-SCS-MP2 energy [au]:                      -40.432789521176
 DF-SOS-MP2 correlation energy [au]:           -0.221780827850
 DF-SOS-MP2 energy [au]:                      -40.437395001036
 DF-MP2 correlation energy [au]:               -0.207964388270
 DF-MP2 energy [au]:                          -40.423578561456

 ************************ 2023-02-04 11:45:07 *************************
 Executing ccsd...

 Allocation of 220.0 Gbytes of memory...

 Direct DF-CCSD(T) calculation
 
 Convergence criterion:  1.0E-06
 
 Number of occupied/virtual/auxiliary orbitals:     4   101   320
    163.36 MB is the minimal memory requirement for (T)
     39.40 MB is the minimal memory requirement for CCSD
 
 Reference energy [au]:             -40.215614173186
 T1 contribution [au]:                0.000000000000
 Same spin MP2 energy [au]:          -0.037360400614
 Opposite spin MP2 energy [au]:      -0.170609406633
 MP2 correlation energy [au]:        -0.207969807246
 Total MP2 energy [au]:             -40.423583980432
 MP2 correction [au]:                -0.003281410273
 
 
 CPU time [min]:     0.178                   Wall time [min]:     0.008
 
 Starting CCSD iterations...
 
                     Residual norm          Energy
 Iteration  1        0.138680878959      -40.436528971455
 Iteration  2        0.035376073900      -40.442052524970
 Iteration  3        0.009771738575      -40.442635245513
 Iteration  4        0.002020926966      -40.442639744625
 Iteration  5        0.000374897555      -40.442646255450
 Iteration  6        0.000084797660      -40.442646132207
 Iteration  7        0.000020223472      -40.442646822235
 Iteration  8        0.000003738677      -40.442646879184
 
 CCSD iteration has converged in  8 steps.
      444.29 MB memory was utilized by CCSD
 
 T1 diagnostic:      7.996E-03            D1 diagnostic:      1.292E-02
 
 T1 contribution [au]:                                  0.000000000000
 PPL energy contribution [au]:                          0.060602206832
 Scaled PPL energy contribution [au]:                   0.061558991760

 OS-PPL energy contribution [au]:                       0.053773710780
 Scaled OS-PPL energy contribution [au]:                0.054766758519
 SS-PPL energy contribution [au]:                       0.006828496052
 Scaled SS-PPL energy contribution [au]:                0.006852794722

 Opposite spin CCSD energy [au]:                       -0.191003419856
 Same spin CCSD energy [au]:                           -0.036036035861
 CCSD correlation energy [au]:                         -0.227039455717
 CCSD correlation energy + MP2 correction [au]:        -0.230320865990
 CCSD correlation energy + MP2 + PPL corr. [au]:       -0.229364081063
 Total CCSD energy [au]:                              -40.442653628903
 Total CCSD energy + MP2 correction [au]:             -40.445935039176
 Total CCSD energy + MP2 + PPL corr. [au]:            -40.444978254249
 
 CPU time [min]:     0.934                   Wall time [min]:     0.029
 
 Calculation of (T) correction...
 
 
      124.68 MB memory is utilized for (T)

 0%       25%       50%       75%       100%
 |---------|---------|---------|---------| 
 
 (T) correction [au]:                                    -0.006941734462
 (T*) correction [au]:                                   -0.007051263240
 (T+) correction [au]:                                   -0.007050856221
 CCSD(T) correlation energy [au]:                        -0.233981190180
 CCSD(T) correlation energy + MP2 correction [au]:       -0.237262600452
 CCSD(T+) correlation en. + MP2 + PPL corr. [au]:        -0.236414937284
 Total CCSD(T) energy [au]:                             -40.449595363365
 Total CCSD(T) energy + MP2 correction [au]:            -40.452876773638
 Total CCSD(T+) energy + MP2 + PPL corr. [au]:          -40.452029110469
 
 CPU time [min]:     1.024                   Wall time [min]:     0.032
 
 ************************ 2023-02-04 11:45:09 *************************
                      Normal termination of mrcc.
 **********************************************************************
