 **********************************************************************
                          MRCC program system
 **********************************************************************
 
                              Written by
     Mihaly Kallay, Peter R. Nagy, David Mester, Laszlo Gyevi-Nagy,
        Jozsef Csoka, P. Bernat Szabo, Zoltan Rolik, Gyula Samu,
     Jozsef Csontos, Bence Hegely, Adam Ganyecz, Istvan Ladjanszki,
       Lorant Szegedy, Bence Ladoczki, Klara Petrov, Mate Farkas,
                    Pal D. Mezei, and Reka A. Horvath
 
        Department of Physical Chemistry and Materials Science
            Budapest University of Technology and Economics
                  Budapest P.O.Box 91, H-1521 Hungary
 
                              www.mrcc.hu
 
                      Release date: March 18, 2022

 ************************ 2024-08-25 00:41:59 *************************
 Executing minp...

 Reading input from MINP...
 
 Input file:
 
calc=LNO-CCSD(T)
scftype=rhf
verbosity=3
mem=1400GB
symm=off
unit=angs
scfiguess=small
scfmaxit=1000
scfalg=locfit1


lcorthr=tight
bpedo=0.99999
ccmaxit=400
usedisk=0
ccsdalg=dfdirect
ccsdthreads=4
ccsdmkl=thr
ptthreads=4

charge=-18
core=17

basis=special
aug-cc-pVDZ
aug-cc-pVDZ
aug-cc-pVDZ
aug-cc-pVDZ
bse_CVDZ
bse_CVDZ
bse_CVDZ
bse_CVDZ
aug-cc-pVDZ
aug-cc-pVDZ
aug-cc-pVDZ
aug-cc-pVDZ
aug-cc-pVDZ
aug-cc-pVDZ
aug-cc-pVDZ
aug-cc-pVDZ
aug-cc-pVDZ
aug-cc-pVDZ
aug-cc-pVDZ
aug-cc-pVDZ
nothing
nothing
nothing
nothing
nothing
nothing
nothing
nothing
nothing
nothing
nothing
nothing
nothing
nothing
nothing
nothing
nothing
nothing
nothing
nothing
nothing
nothing
nothing
nothing
nothing
nothing
nothing
nothing
nothing
nothing
nothing
nothing
nothing
nothing
nothing
nothing
nothing
nothing
nothing
nothing
nothing
nothing
nothing
nothing
nothing

basis_sm=special
def2-SVP
def2-SVP
def2-SVP
def2-SVP
def2-SVP
def2-SVP
def2-SVP
def2-SVP
def2-SVP
def2-SVP
def2-SVP
def2-SVP
def2-SVP
def2-SVP
def2-SVP
def2-SVP
def2-SVP
def2-SVP
def2-SVP
def2-SVP
nothing
nothing
nothing
nothing
nothing
nothing
nothing
nothing
nothing
nothing
nothing
nothing
nothing
nothing
nothing
nothing
nothing
nothing
nothing
nothing
nothing
nothing
nothing
nothing
nothing
nothing
nothing
nothing
nothing
nothing
nothing
nothing
nothing
nothing
nothing
nothing
nothing
nothing
nothing
nothing
nothing
nothing
nothing
nothing
nothing

dfbasis_scf=special
def2-QZVPP-RI-JK
def2-QZVPP-RI-JK
def2-QZVPP-RI-JK
def2-QZVPP-RI-JK
def2-QZVPP-RI-JK
def2-QZVPP-RI-JK
def2-QZVPP-RI-JK
def2-QZVPP-RI-JK
def2-QZVPP-RI-JK
def2-QZVPP-RI-JK
def2-QZVPP-RI-JK
def2-QZVPP-RI-JK
def2-QZVPP-RI-JK
def2-QZVPP-RI-JK
def2-QZVPP-RI-JK
def2-QZVPP-RI-JK
def2-QZVPP-RI-JK
def2-QZVPP-RI-JK
def2-QZVPP-RI-JK
def2-QZVPP-RI-JK
nothing
nothing
nothing
nothing
nothing
nothing
nothing
nothing
nothing
nothing
nothing
nothing
nothing
nothing
nothing
nothing
nothing
nothing
nothing
nothing
nothing
nothing
nothing
nothing
nothing
nothing
nothing
nothing
nothing
nothing
nothing
nothing
nothing
nothing
nothing
nothing
nothing
nothing
nothing
nothing
nothing
nothing
nothing
nothing
nothing

dfbasis_cor=special
aug-cc-pVDZ-RI
aug-cc-pVDZ-RI
aug-cc-pVDZ-RI
aug-cc-pVDZ-RI
bse_CVDZ_mp2fit
bse_CVDZ_mp2fit
bse_CVDZ_mp2fit
bse_CVDZ_mp2fit
aug-cc-pVDZ-RI
aug-cc-pVDZ-RI
aug-cc-pVDZ-RI
aug-cc-pVDZ-RI
aug-cc-pVDZ-RI
aug-cc-pVDZ-RI
aug-cc-pVDZ-RI
aug-cc-pVDZ-RI
aug-cc-pVDZ-RI
aug-cc-pVDZ-RI
aug-cc-pVDZ-RI
aug-cc-pVDZ-RI
nothing
nothing
nothing
nothing
nothing
nothing
nothing
nothing
nothing
nothing
nothing
nothing
nothing
nothing
nothing
nothing
nothing
nothing
nothing
nothing
nothing
nothing
nothing
nothing
nothing
nothing
nothing
nothing
nothing
nothing
nothing
nothing
nothing
nothing
nothing
nothing
nothing
nothing
nothing
nothing
nothing
nothing
nothing
nothing
nothing

ecp=special
none
none
none
none
none
none
none
none
none
none
none
none
none
none
none
none
none
none
none
none
ECP-12
ECP-12
ECP-12
ECP-12
ECP-12
ECP-12
ECP-12
ECP-12
ECP-12
ECP-12
ECP-12
ECP-12
ECP-12
ECP-12
ECP-12
ECP-12
ECP-12
ECP-12
ECP-12
ECP-12
ECP-12
ECP-12
ECP-12
ECP-12
ECP-12
ECP-12
ECP-12
ECP-12
ECP-12
ECP-12
ECP-12
ECP-12
ECP-12
ECP-12
ECP-12
ECP-12
ECP-12
ECP-12
ECP-12
ECP-12
ECP-12
ECP-12
ECP-12
ECP-12
ECP-12

unit=angs
geom=xyz
65
C1 O2 Mg4 O13 ECP45
C     0.00000033711   -0.00006957891    1.40405664822
O     0.00000079691    1.15576487802    1.89863274052
O     0.00000036349   -1.15570036094    1.89860812390
O     0.00000000000    0.00000000000   -0.06544759026
Mg    0.00000024929    2.20484637813   -0.00000674162
Mg    0.00000024579   -2.20485539840    0.00000000000
Mg    2.21850991033   -0.00000742419   -0.22949933766
Mg   -2.21850893576   -0.00000746138   -0.22950133845
O    -2.12578919050    2.09760044175   -0.17895896245
O     2.12579000542    2.09760027931   -0.17895886247
O     2.12579015147   -2.09761398335   -0.17895997133
O    -2.12578937395   -2.09761419059   -0.17896022017
O     0.00000030369    2.09082416872   -2.28295908775
O     0.00000030838   -2.09083755174   -2.28295920375
O     2.09071006089   -0.00000660658   -2.30062412164
O    -2.09070935908   -0.00000661050   -2.30062491296
O     0.00000039642    4.22048592714   -0.13776483745
O     0.00000039642   -4.22050112868   -0.13776483745
O     4.22049405304   -0.00000660593   -0.18587517348
O    -4.22049300278   -0.00000660593   -0.18587517348
Mg    0.00000050214   -0.00000677559   -2.35422759756
Mg   -2.09302783758    2.11662654520   -2.28950180714
Mg    2.09302851728    2.11662636432   -2.28950094145
Mg    2.09302833828   -2.11664009950   -2.28949933080
Mg   -2.09302764919   -2.11664031850   -2.28950022895
Mg   -2.12994500009    4.22048719744   -0.19604309228
Mg    2.12994574482    4.22048717562   -0.19604391144
Mg    2.12994574482   -4.22049988020   -0.19604391144
Mg   -2.12994500009   -4.22049985838   -0.19604309228
Mg   -4.22049300136    2.12974862664   -0.20425018413
Mg    4.22049405445    2.12974862664   -0.20425018413
Mg    4.22049404452   -2.12976230074   -0.20424901271
Mg   -4.22049301130   -2.12976230074   -0.20424901271
Mg    0.00000027652    4.22048691662   -2.28199839376
Mg    0.00000027652   -4.22050013920   -2.28199839376
Mg    4.22049365957   -0.00000736005   -2.33053784510
Mg   -4.22049339624   -0.00000736005   -2.33053784510
Mg    0.00000034146    2.11023985771   -4.42798991982
Mg    2.11024710542   -0.00000690624   -4.42798991982
Mg    0.00000034146   -2.11025367019   -4.42798991982
Mg   -2.11024642249   -0.00000690624   -4.42798991982
Mg    6.22247812006   -0.00000746138   -0.22950133845
Mg   -6.22247714549   -0.00000742419   -0.22949933766
Mg    0.00000024579    6.23613165742    0.00000000000
Mg    0.00000024929   -6.23614067769   -0.00000674162
Mg   -4.22049307733    4.22048660816   -2.31433813016
Mg    4.22049397849    4.22048660816   -2.31433813016
Mg    4.22049397849   -4.22050044765   -2.31433813016
Mg   -4.22049307733   -4.22050044765   -2.31433813016
Mg   -4.22049318645    2.11023985771   -4.42798991982
Mg   -2.11024642249    4.22048662167   -4.42798991982
Mg    2.11024710542    4.22048662167   -4.42798991982
Mg    4.22049386937    2.11023985771   -4.42798991982
Mg    4.22049386937   -2.11025367019   -4.42798991982
Mg    2.11024710542   -4.22050043415   -4.42798991982
Mg   -2.11024642249   -4.22050043415   -4.42798991982
Mg   -4.22049318645   -2.11025367019   -4.42798991982
Mg   -2.09302764919    6.32434673731   -2.28950022895
Mg    2.09302833828    6.32434695632   -2.28949933080
Mg    2.09302851728   -6.32436069149   -2.28950094145
Mg   -2.09302783758   -6.32436051061   -2.28950180714
Mg   -6.34795853853    2.11662636432   -2.28950094145
Mg    6.34795921824    2.11662654520   -2.28950180714
Mg    6.34795940663   -2.11664031850   -2.28950022895
Mg   -6.34795871753   -2.11664009950   -2.28949933080


ghost=serialno
1-3

qmmm=Amber
pointcharges
10174
      0.00000050214   -0.00000677559   -2.35422759756    2.00000000000
     -2.09302783758    2.11662654520   -2.28950180714    2.00000000000
      2.09302851728    2.11662636432   -2.28950094145    2.00000000000
      2.09302833828   -2.11664009950   -2.28949933080    2.00000000000
--------------------Output has been truncated-------------------------


--------------------Output has been truncated-------------------------


--------------------Output has been truncated-------------------------


--------------------Output has been truncated-------------------------


--------------------Output has been truncated-------------------------


--------------------Output has been truncated-------------------------


--------------------Output has been truncated-------------------------


--------------------Output has been truncated-------------------------


--------------------Output has been truncated-------------------------


--------------------Output has been truncated-------------------------


 
 Final local CC results:
 
 Minimum number of correlated electrons:        36       ( 26.5%)
 Maximum number of correlated electrons:       112       ( 82.4%)
 Average number of correlated electrons:        54.1     ( 39.8%)
 Minimum number of correlated orbitals:         58       ( 12.6%)
 Maximum number of correlated orbitals:        215       ( 46.8%)
 Average number of correlated orbitals:        105.0     ( 22.9%)
 
 CPU time for integral calculations [min]:                  2.555
 Wall time for integral calculations [min]:                 0.709
 
 CPU time for SCF calculation [min]:                       39.855
 Wall time for SCF calculation [min]:                       1.129
 
 CPU time for orbital localization [min]:                   0.247
 Wall time for orbital localization [min]:                  0.033
 
 CPU time for integral transformations [min]:             506.163
 Wall time for integral transformations [min]:             16.390
 
 Reference energy [au]:                                -10359.216465755890
 
 LMP2 correlation energy [au]:                             -3.422815142537
 Total LMP2 energy [au]:                               -10362.639280898427
 
 Total MP2 correction for dropped NAFs [au]:                0.001271611042
 Total MP2 correction [au]:                                -0.007791424762
 
 CPU time for CCSD calculations [min]:                    407.240
 Total CPU time for CCSD [min]:                           956.060
 Wall time for CCSD calculations [min]:                    18.737
 Total wall time for CCSD [min]:                           36.997
 
 CCSD correlation energy [au]:                             -3.440183401858
 Total CCSD energy [au]:                               -10362.656649157747
 CCSD correlation energy + 0.5 MP2 corrections [au]:       -3.444079114239
 Total LNO-CCSD energy with MP2 corrections [au]:      -10362.660544870128
 
 CPU time for (T) corrections [min]:                      460.938
 Total CPU time for CCSD(T) [min]:                       1416.998
 Wall time for (T) corrections [min]:                      14.822
 Total wall time for CCSD(T) [min]:                        51.819
 
 Total (T) correlation energy contribution [au]:           -0.087919980546
 Total (T) correlation energy+0.5 MP2 correction [au]:     -0.091815692927
 CCSD(T) correlation energy [au]:                          -3.528103382404
 Total CCSD(T) energy [au]:                            -10362.744569138295
 CCSD(T) correlation energy + MP2 corrections [au]:        -3.535894807166
 Total LNO-CCSD(T) energy with MP2 corrections [au]:   -10362.752360563056
 
 ======================================================================
 ======================================================================
 
 ************************ 2024-08-25 01:34:49 *************************
                      Normal termination of mrcc.
 **********************************************************************
