 **********************************************************************
                          MRCC program system
 **********************************************************************
 
                              Written by
     Mihaly Kallay, Peter R. Nagy, David Mester, Laszlo Gyevi-Nagy,
        Jozsef Csoka, P. Bernat Szabo, Zoltan Rolik, Gyula Samu,
     Jozsef Csontos, Bence Hegely, Adam Ganyecz, Istvan Ladjanszki,
       Lorant Szegedy, Bence Ladoczki, Klara Petrov, Mate Farkas,
                    Pal D. Mezei, and Reka A. Horvath
 
        Department of Physical Chemistry and Materials Science
            Budapest University of Technology and Economics
                  Budapest P.O.Box 91, H-1521 Hungary
 
                              www.mrcc.hu
 
                      Release date: March 18, 2022

 ************************ 2023-02-04 11:49:07 *************************
 Executing minp...

 Reading input from MINP...
 
 Input file:
 
calc=FNO-CCSD(T)
verbosity=3
mem=220GB
unit=angs
scfiguess=small
scfalg=locfit1
ccmaxit=400
ccsdalg=dfdirect
ccsdthreads=4
ccsdmkl=thr
ptthreads=4
lnoepsv=1e-5
naf_cor=1e-2
basis=aug-cc-pVQZ
basis_sm=def2-SVP
dfbasis_scf=def2-QZVPP-RI-JK
dfbasis_cor=aug-cc-pVQZ-RI
unit=angs
geom=xyz
10

C    29.54344629    29.54344629    16.97505516
H    29.54344670    30.44187631    17.60392580
H    29.54344662    28.64496649    17.60393442
H    30.44658454    29.54342777    16.34911135
H    28.64030918    29.54342779    16.34911130
C    46.42541560    37.98443094    16.97505516
H    46.42541600    38.88286097    17.60392580
H    46.42541593    37.08595114    17.60393442
H    47.32855385    37.98441242    16.34911135
H    45.52227849    37.98441244    16.34911130

--------------------Output has been truncated-------------------------


--------------------Output has been truncated-------------------------


--------------------Output has been truncated-------------------------


--------------------Output has been truncated-------------------------


--------------------Output has been truncated-------------------------


--------------------Output has been truncated-------------------------


--------------------Output has been truncated-------------------------


--------------------Output has been truncated-------------------------


--------------------Output has been truncated-------------------------


--------------------Output has been truncated-------------------------


 
 Reference energy [au]:                       -80.431228349896
 DF-MP2 singlet pair energy [au]:              -0.347505744036
 DF-MP2 triplet pair energy [au]:              -0.074996751295
 DF-SCS-MP2 correlation energy [au]:           -0.442005809942
 DF-SCS-MP2 energy [au]:                      -80.873234159838
 DF-SOS-MP2 correlation energy [au]:           -0.451757467247
 DF-SOS-MP2 energy [au]:                      -80.882985817143
 DF-MP2 correlation energy [au]:               -0.422502495332
 DF-MP2 energy [au]:                          -80.853730845227

 Results in FNO basis:
 
 
 Reference energy [au]:                       -80.431228349896
 DF-MP2 singlet pair energy [au]:              -0.341236414627
 DF-MP2 triplet pair energy [au]:              -0.074714145292
 DF-SCS-MP2 correlation energy [au]:           -0.434388412650
 DF-SCS-MP2 energy [au]:                      -80.865616762546
 DF-SOS-MP2 correlation energy [au]:           -0.443607339015
 DF-SOS-MP2 energy [au]:                      -80.874835688911
 DF-MP2 correlation energy [au]:               -0.415950559919
 DF-MP2 energy [au]:                          -80.847178909815

 Results in NAF basis:
 
 
 Reference energy [au]:                       -80.431228349896
 DF-MP2 singlet pair energy [au]:              -0.341201921037
 DF-MP2 triplet pair energy [au]:              -0.074726349909
 DF-SCS-MP2 correlation energy [au]:           -0.434351088548
 DF-SCS-MP2 energy [au]:                      -80.865579438444
 DF-SOS-MP2 correlation energy [au]:           -0.443562497349
 DF-SOS-MP2 energy [au]:                      -80.874790847244
 DF-MP2 correlation energy [au]:               -0.415928270946
 DF-MP2 energy [au]:                          -80.847156620842

 ************************ 2023-02-04 11:49:42 *************************
 Executing ccsd...

 Allocation of 220.0 Gbytes of memory...

 Direct DF-CCSD(T) calculation
 
 Convergence criterion:  1.0E-06
 
 Number of occupied/virtual/auxiliary orbitals:     8   202   640
   1312.15 MB is the minimal memory requirement for (T)
    293.11 MB is the minimal memory requirement for CCSD
 
 Reference energy [au]:             -80.431228349896
 T1 contribution [au]:                0.000000000000
 Same spin MP2 energy [au]:          -0.074720239727
 Opposite spin MP2 energy [au]:      -0.341219151143
 MP2 correlation energy [au]:        -0.415939390870
 Total MP2 energy [au]:             -80.847167740766
 MP2 correction [au]:                -0.006563104461
 
 
 CPU time [min]:     0.493                   Wall time [min]:     0.058
 
 Starting CCSD iterations...
 
                     Residual norm          Energy
 Iteration  1        0.196123969876      -80.873057755461
 Iteration  2        0.050029256230      -80.884104948340
 Iteration  3        0.013819426257      -80.885270413019
 Iteration  4        0.002858067365      -80.885279416944
 Iteration  5        0.000530193125      -80.885292438543
 Iteration  6        0.000119922491      -80.885292192046
 Iteration  7        0.000028600472      -80.885293572160
 Iteration  8        0.000005287308      -80.885293686056
 Iteration  9        0.000001125702      -80.885293662095
 
 CCSD iteration has converged in  9 steps.
     6687.81 MB memory was utilized by CCSD
 
 T1 diagnostic:      7.996E-03            D1 diagnostic:      1.292E-02
 
 T1 contribution [au]:                                  0.000000000000
 PPL energy contribution [au]:                          0.121204728309
 Scaled PPL energy contribution [au]:                   0.123118467110

 OS-PPL energy contribution [au]:                       0.107547965879
 Scaled OS-PPL energy contribution [au]:                0.109533876297
 SS-PPL energy contribution [au]:                       0.013656762429
 Scaled SS-PPL energy contribution [au]:                0.013705558985

 Opposite spin CCSD energy [au]:                       -0.382007523563
 Same spin CCSD energy [au]:                           -0.072071415144
 CCSD correlation energy [au]:                         -0.454078938707
 CCSD correlation energy + MP2 correction [au]:        -0.460642043168
 CCSD correlation energy + MP2 + PPL corr. [au]:       -0.458728304367
 Total CCSD energy [au]:                              -80.885307288603
 Total CCSD energy + MP2 correction [au]:             -80.891870393064
 Total CCSD energy + MP2 + PPL corr. [au]:            -80.889956654263
 
 CPU time [min]:    12.692                   Wall time [min]:     0.407
 
 Calculation of (T) correction...
 
 
     1275.43 MB memory is utilized for (T)

 0%       25%       50%       75%       100%
 |---------|---------|---------|---------| 
 
 (T) correction [au]:                                    -0.013883354196
 (T*) correction [au]:                                   -0.014102419536
 (T+) correction [au]:                                   -0.014101613014
 CCSD(T) correlation energy [au]:                        -0.467962292904
 CCSD(T) correlation energy + MP2 correction [au]:       -0.474525397365
 CCSD(T+) correlation en. + MP2 + PPL corr. [au]:        -0.472829917382
 Total CCSD(T) energy [au]:                             -80.899190642799
 Total CCSD(T) energy + MP2 correction [au]:            -80.905753747261
 Total CCSD(T+) energy + MP2 + PPL corr. [au]:          -80.904058267277
 
 CPU time [min]:    16.686                   Wall time [min]:     0.538
 
 ************************ 2023-02-04 11:50:14 *************************
                      Normal termination of mrcc.
 **********************************************************************
