 vasp.6.3.0 20Jan22 (build Apr  1 2022 16:44:48) gamma-only                      
 executed on        HPECrayEX_GCC date 2023.03.12  03:10:49
 running  768 mpi-ranks, with    1 threads/rank
 distrk:  each k-point on  768 cores,    1 groups
 distr:  one band on NCORE=   8 cores,   96 groups


--------------------------------------------------------------------------------------------------------


 INCAR:
   SYSTEM = MgO-rocksalt
   ISMEAR = 0
   SIGMA = 0.05
   EDIFF = 1E-6
   ALGO = ALL
   ISTART = 0
   IBRION = -1
   NSW = 0
   ISYM = 0
   DIPOL = 0.5 0.5 0.5
   IDIPOL = 3
   LDIPOL = .TRUE.
   LHFCALC = .TRUE.
   GGA = B5
   AEXX = 0.2
   AGGAX = 0.72
   AGGAC = 0.81
   ALDAC = 0.19
   IVDW = 1
   VDW_S6 = 1.05
   VDW_C6 = 0.63 0.70
   VDW_R0 = 1.243 1.342
   ENCUT = 520
   PREC = Accurate
   LASPH = .TRUE.
   LREAL = Auto
   ISPIN = 1
   NELM = 200
   NELMIN = 8
   NCORE = 8
   KPAR = 1
   LWAVE = .FALSE.
   LCHARG = .FALSE.

 POTCAR:    PAW_PBE Mg_pv 13Apr2007               
 POTCAR:    PAW_PBE O 08Apr2002                   
 POTCAR:    PAW_PBE Mg_pv 13Apr2007               
   SHA256 =  f474ac0dd33840b9ae76c01d57fea79fdf77cdfbb07d5ade72c65f83c709b62b Mg_pv/POTCAR          
   COPYR  = (c) Copyright 13Apr2007 Georg Kresse                                                    
   COPYR  = This file is part of the software VASP. Any use, copying, and all other rights are regul
   COPYR  = If you do not have a valid VASP license, you may not use, copy or distribute this file. 
   VRHFIN =Mg: p6s2                                                                                 
   LEXCH  = PE                                                                                      
   EATOM  =  1056.7344 eV,   77.6678 Ry                                                             
                                                                                                    
   TITEL  = PAW_PBE Mg_pv 13Apr2007                                                                 
   LULTRA =        F    use ultrasoft PP ?                                                          
   IUNSCR =        1    unscreen: 0-lin 1-nonlin 2-no                                               
   RPACOR =    1.500    partial core radius                                                         
   POMASS =   24.305; ZVAL   =    8.000    mass and valenz                                          
   RCORE  =    2.000    outmost cutoff radius                                                       
   RWIGS  =    2.000; RWIGS  =    1.058    wigner-seitz radius (au A)                               
   ENMAX  =  403.929; ENMIN  =  302.947 eV                                                          
   RCLOC  =    1.506    cutoff for local pot                                                        
   LCOR   =        T    correct aug charges                                                         
   LPAW   =        T    paw PP                                                                      
   EAUG   =  758.780                                                                                
   DEXC   =    0.000                                                                                
   RMAX   =    2.045    core radius for proj-oper                                                   
   RAUG   =    1.300    factor for augmentation sphere                                              
   RDEP   =    2.025    radius for radial grids                                                     
   RDEPT  =    1.557    core radius for aug-charge                                                  
                                                                                                    
   Atomic configuration                                                                             
    5 entries                                                                                       
     n  l   j            E        occ.                                                              
     1  0  0.50     -1259.6230   2.0000                                                             
     2  0  0.50       -79.8442   2.0000                                                             
     2  1  1.50       -46.6121   6.0000                                                             
     3  0  0.50        -4.7055   2.0000                                                             
     3  2  1.50        -1.3606   0.0000                                                             
   Description                                                                                      
     l       E           TYP  RCUT    TYP  RCUT                                                     
     1    -46.6121073     23  1.600                                                                 
     1      2.7211652     23  1.600                                                                 
     0     -4.7054661     23  2.000                                                                 
     0     61.2262170     23  2.000                                                                 
     2     -1.3605826     23  2.000                                                                 
  local pseudopotential read in
  partial core-charges read in
  partial kinetic energy density read in
  atomic valenz-charges read in
  non local Contribution for L=           1  read in
    real space projection operators read in
  non local Contribution for L=           1  read in
    real space projection operators read in
  non local Contribution for L=           0  read in
    real space projection operators read in
  non local Contribution for L=           0  read in
    real space projection operators read in
  non local Contribution for L=           2  read in
    real space projection operators read in
    PAW grid and wavefunctions read in

   number of l-projection  operators is LMAX  =           5
   number of lm-projection operators is LMMAX =          13

 POTCAR:    PAW_PBE O 08Apr2002                   
   SHA256 =  818f92134a0a090dccd8ba1447fa70422a3b330e708bb4f08108d8ae51209ddf O/POTCAR              
   COPYR  = (c) Copyright 08Apr2002 Georg Kresse                                                    
   COPYR  = This file is part of the software VASP. Any use, copying, and all other rights are regul
   COPYR  = If you do not have a valid VASP license, you may not use, copy or distribute this file. 
   VRHFIN =O: s2p4                                                                                  
   LEXCH  = PE                                                                                      
   EATOM  =   432.3788 eV,   31.7789 Ry                                                             
                                                                                                    
   TITEL  = PAW_PBE O 08Apr2002                                                                     
   LULTRA =        F    use ultrasoft PP ?                                                          
   IUNSCR =        1    unscreen: 0-lin 1-nonlin 2-no                                               
   RPACOR =    1.200    partial core radius                                                         
   POMASS =   16.000; ZVAL   =    6.000    mass and valenz                                          
   RCORE  =    1.520    outmost cutoff radius                                                       
   RWIGS  =    1.550; RWIGS  =    0.820    wigner-seitz radius (au A)                               
   ENMAX  =  400.000; ENMIN  =  300.000 eV                                                          
   ICORE  =        2    local potential                                                             
   LCOR   =        T    correct aug charges                                                         
   LPAW   =        T    paw PP                                                                      
   EAUG   =  605.392                                                                                
   DEXC   =    0.000                                                                                
   RMAX   =    1.553    core radius for proj-oper                                                   
   RAUG   =    1.300    factor for augmentation sphere                                              
   RDEP   =    1.550    radius for radial grids                                                     
   RDEPT  =    1.329    core radius for aug-charge                                                  
                                                                                                    
   Atomic configuration                                                                             
    4 entries                                                                                       
     n  l   j            E        occ.                                                              
     1  0  0.50      -514.6923   2.0000                                                             
     2  0  0.50       -23.9615   2.0000                                                             
     2  1  0.50        -9.0305   4.0000                                                             
     3  2  1.50        -9.5241   0.0000                                                             
   Description                                                                                      
     l       E           TYP  RCUT    TYP  RCUT                                                     
     0    -23.9615318     23  1.200                                                                 
     0     -9.5240782     23  1.200                                                                 
     1     -9.0304911     23  1.520                                                                 
     1      8.1634956     23  1.520                                                                 
     2     -9.5240782      7  1.500                                                                 
  local pseudopotential read in
  partial core-charges read in
  partial kinetic energy density read in
  kinetic energy density of atom read in
  atomic valenz-charges read in
  non local Contribution for L=           0  read in
    real space projection operators read in
  non local Contribution for L=           0  read in
    real space projection operators read in
  non local Contribution for L=           1  read in
    real space projection operators read in
  non local Contribution for L=           1  read in
    real space projection operators read in
    PAW grid and wavefunctions read in

   number of l-projection  operators is LMAX  =           4
   number of lm-projection operators is LMMAX =           8

 Optimization of the real space projectors (new method)

 maximal supplied QI-value         = 18.90
 optimisation between [QCUT,QGAM] = [ 11.53, 23.24] = [ 37.21,151.29] Ry 
 Optimized for a Real-space Cutoff    1.28 Angstroem

   l    n(q)    QCUT    max X(q) W(low)/X(q) W(high)/X(q)  e(spline) 
   1      8    11.527     2.974    0.44E-04    0.56E-04    0.12E-06
   1      8    11.527     4.279    0.12E-03    0.12E-03    0.26E-06
   0      9    11.527    16.381    0.46E-04    0.64E-04    0.78E-07
   0      9    11.527     5.611    0.26E-04    0.43E-04    0.55E-07
   2      8    11.527     4.652    0.22E-03    0.72E-04    0.47E-07
 Optimization of the real space projectors (new method)

 maximal supplied QI-value         = 24.76
 optimisation between [QCUT,QGAM] = [ 11.64, 23.27] = [ 37.91,151.63] Ry 
 Optimized for a Real-space Cutoff    1.14 Angstroem

   l    n(q)    QCUT    max X(q) W(low)/X(q) W(high)/X(q)  e(spline) 
   0      8    11.635    20.381    0.10E-03    0.33E-03    0.24E-06
   0      8    11.635    15.268    0.11E-03    0.35E-03    0.26E-06
   1      7    11.635     5.964    0.24E-03    0.31E-03    0.30E-06
   1      7    11.635     5.382    0.22E-03    0.25E-03    0.26E-06
 -----------------------------------------------------------------------------
|                                                                             |
|               ----> ADVICE to this user running VASP <----                  |
|                                                                             |
|     You enforced a specific xc type in the INCAR file but a different       |
|     type was found in the POTCAR file.                                      |
|     I HOPE YOU KNOW WHAT YOU ARE DOING!                                     |
|                                                                             |
 -----------------------------------------------------------------------------

  PAW_PBE Mg_pv 13Apr2007               :
 energy of atom  1       EATOM=-1056.7344
 kinetic energy error for atom=    0.0340 (will be added to EATOM!!)
  PAW_PBE O 08Apr2002                   :
 energy of atom  2       EATOM= -432.3788
 kinetic energy error for atom=    0.0208 (will be added to EATOM!!)


 POSCAR: Mg  O
  positions in direct lattice
  No initial velocities read in
 exchange correlation table for  LEXCH =       12
   RHO(1)=    0.500       N(1)  =     2000
   RHO(2)=  100.500       N(2)  =     4000



--------------------------------------------------------------------------------------------------------


 ion  position               nearest neighbor table
   1  0.125  0.000  0.352- 131 2.10 132 2.10 148 2.10 171 2.10 129 2.10
   2  0.250  0.125  0.352- 131 2.10 132 2.10 140 2.10 147 2.10 130 2.10
   3  0.125  0.125  0.451- 129 2.10 130 2.10 137 2.10 146 2.10 131 2.10 135 2.10
   4  0.250  0.000  0.451- 129 2.10 130 2.10 145 2.10 170 2.10 132 2.10 136 2.10
   5  0.125  1.000  0.550- 136 2.10 135 2.10 175 2.10 152 2.10 129 2.11 133 2.13
   6  0.250  0.125  0.549- 144 2.10 151 2.10 135 2.10 136 2.10 130 2.10 134 2.13
   7  0.125  0.125  0.647- 135 2.09 134 2.10 150 2.10 141 2.10 133 2.10
   8  0.250  1.000  0.647- 136 2.09 134 2.10 149 2.10 174 2.10 133 2.10
   9  0.125  0.250  0.352- 131 2.10 139 2.10 140 2.10 156 2.10 137 2.10
  10  0.250  0.375  0.352- 139 2.10 140 2.10 155 2.10 164 2.10 138 2.10
  11  0.125  0.375  0.451- 137 2.10 138 2.10 154 2.10 161 2.10 139 2.10 143 2.10
  12  0.250  0.250  0.451- 144 2.10 137 2.10 138 2.10 130 2.10 153 2.10 140 2.10
  13  0.125  0.250  0.550- 144 2.10 160 2.10 143 2.10 135 2.10 137 2.11 141 2.13
  14  0.250  0.375  0.550- 159 2.08 144 2.10 168 2.10 143 2.11 138 2.11 142 2.15
  15  0.125  0.375  0.647- 143 2.08 142 2.09 158 2.10 141 2.11 165 2.11
  16  0.250  0.250  0.647- 144 2.08 157 2.08 141 2.10 134 2.10 142 2.11
  17  0.375  0.000  0.352- 132 2.10 147 2.10 187 2.10 212 2.10 145 2.10
  18  0.000  0.125  0.352- 131 2.10 148 2.10 156 2.10 211 2.10 146 2.10
  19  0.375  0.125  0.451- 151 2.10 145 2.10 130 2.10 153 2.10 210 2.10 147 2.10
  20  0.000  0.000  0.451- 129 2.10 146 2.10 186 2.10 209 2.10 148 2.10 152 2.10
  21  0.375  1.000  0.550- 151 2.10 191 2.10 216 2.10 136 2.10 145 2.11 149 2.13
  22  0.000  0.125  0.550- 135 2.10 215 2.10 152 2.10 160 2.10 146 2.11 150 2.13
  23  0.375  0.125  0.646- 151 2.07 157 2.08 149 2.10 134 2.10 214 2.11
  24  0.000  1.000  0.647- 152 2.09 133 2.10 213 2.10 190 2.10 150 2.10
  25  0.375  0.250  0.352- 140 2.10 147 2.10 155 2.10 220 2.10 153 2.10
  26  0.000  0.375  0.352- 139 2.10 156 2.10 180 2.10 219 2.10 154 2.10
  27  0.375  0.375  0.451- 138 2.10 153 2.10 177 2.10 218 2.10 155 2.10 159 2.11
  28  0.000  0.250  0.451- 137 2.10 146 2.10 154 2.10 217 2.10 156 2.10 160 2.10
  29  0.376  0.250  0.550- 159 2.09 224 2.09 157 2.10 151 2.12 144 2.12 153 2.12
  30  0.000  0.375  0.550- 223 2.10 143 2.10 160 2.10 184 2.10 154 2.11 158 2.13
  31  0.375  0.374  0.650- 222 2.09 157 2.11 142 2.13 181 2.14 159 2.14
  32  0.000  0.250  0.647- 160 2.09 221 2.10 141 2.10 150 2.10 158 2.10
  33  0.125  0.500  0.352- 139 2.10 163 2.10 164 2.10 180 2.10 161 2.10
  34  0.250  0.625  0.352- 163 2.10 164 2.10 172 2.10 179 2.10 162 2.10
  35  0.125  0.625  0.451- 161 2.10 162 2.10 169 2.10 178 2.10 163 2.10 167 2.10
  36  0.250  0.500  0.451- 168 2.10 161 2.10 162 2.10 138 2.10 177 2.10 164 2.10
  37  0.125  0.500  0.550- 168 2.10 184 2.10 143 2.10 167 2.10 161 2.11 165 2.13
  38  0.250  0.625  0.549- 176 2.10 168 2.10 183 2.10 167 2.10 162 2.10 166 2.13
  39  0.125  0.625  0.647- 167 2.09 166 2.10 182 2.10 165 2.10 173 2.10
  40  0.250  0.500  0.646- 168 2.07 181 2.08 165 2.10 166 2.10 142 2.11
  41  0.125  0.750  0.352- 163 2.10 171 2.10 172 2.10 188 2.10 169 2.10
  42  0.250  0.875  0.352- 132 2.10 171 2.10 172 2.10 187 2.10 170 2.10
  43  0.125  0.875  0.451- 129 2.10 169 2.10 170 2.10 186 2.10 171 2.10 175 2.10
  44  0.250  0.750  0.451- 162 2.10 169 2.10 170 2.10 185 2.10 172 2.10 176 2.10
  45  0.125  0.750  0.550- 167 2.10 176 2.10 192 2.10 175 2.10 169 2.11 173 2.13
  46  0.250  0.875  0.550- 136 2.10 176 2.10 175 2.10 191 2.10 170 2.11 174 2.13
  47  0.125  0.875  0.647- 175 2.09 133 2.10 173 2.10 190 2.10 174 2.10
  48  0.250  0.750  0.647- 176 2.09 166 2.10 174 2.10 189 2.10 173 2.10
  49  0.375  0.500  0.352- 155 2.10 164 2.10 179 2.10 244 2.10 177 2.10
  50  0.000  0.625  0.352- 163 2.10 180 2.10 188 2.10 243 2.10 178 2.10
  51  0.375  0.625  0.451- 162 2.10 177 2.10 185 2.10 242 2.10 179 2.10 183 2.10
  52  0.000  0.500  0.451- 154 2.10 161 2.10 178 2.10 241 2.10 180 2.10 184 2.10
  53  0.375  0.499  0.550- 248 2.09 159 2.09 181 2.10 168 2.12 183 2.12 177 2.12
  54  1.000  0.625  0.550- 247 2.10 167 2.10 192 2.10 184 2.10 178 2.11 182 2.13
  55  0.375  0.625  0.647- 183 2.07 181 2.08 189 2.10 166 2.10 246 2.11
  56  1.000  0.500  0.647- 184 2.09 245 2.10 165 2.10 182 2.10 158 2.10
  57  0.375  0.750  0.352- 172 2.10 179 2.10 187 2.10 252 2.10 185 2.10
  58  0.000  0.875  0.352- 148 2.10 171 2.10 188 2.10 251 2.10 186 2.10
  59  0.375  0.875  0.451- 145 2.10 170 2.10 185 2.10 250 2.10 187 2.10 191 2.10
  60  0.000  0.750  0.451- 169 2.10 178 2.10 186 2.10 249 2.10 188 2.10 192 2.10
  61  0.375  0.750  0.550- 183 2.10 191 2.10 256 2.10 176 2.10 185 2.11 189 2.13
  62  0.000  0.875  0.550- 152 2.10 255 2.10 175 2.10 192 2.10 186 2.11 190 2.13
  63  0.375  0.875  0.647- 191 2.09 149 2.10 189 2.10 174 2.10 254 2.10
  64  1.000  0.750  0.647- 192 2.09 253 2.10 173 2.10 190 2.10 182 2.10
  65  0.625  0.000  0.352- 195 2.10 196 2.10 212 2.10 235 2.10 193 2.10
  66  0.750  0.125  0.352- 195 2.10 196 2.10 204 2.10 211 2.10 194 2.10
  67  0.625  0.125  0.451- 199 2.10 194 2.10 193 2.10 201 2.10 210 2.10 195 2.10
  68  0.750  0.000  0.451- 193 2.10 194 2.10 209 2.10 234 2.10 196 2.10 200 2.10
  69  0.625  1.000  0.550- 199 2.10 239 2.10 216 2.10 200 2.10 193 2.11 197 2.13
  70  0.750  0.125  0.549- 199 2.10 208 2.10 200 2.10 215 2.10 194 2.10 198 2.13
  71  0.625  0.125  0.647- 199 2.08 205 2.08 197 2.10 198 2.10 214 2.11
  72  0.750  1.000  0.647- 200 2.09 198 2.09 238 2.10 197 2.10 213 2.10
  73  0.625  0.250  0.352- 195 2.10 203 2.10 204 2.10 220 2.10 201 2.10
  74  0.750  0.375  0.352- 203 2.10 204 2.10 219 2.10 228 2.10 202 2.10
  75  0.625  0.375  0.451- 201 2.10 202 2.10 218 2.10 225 2.10 203 2.10 207 2.11
  76  0.750  0.250  0.451- 208 2.10 201 2.10 202 2.10 194 2.10 217 2.10 204 2.10
  77  0.625  0.251  0.550- 224 2.09 207 2.09 205 2.10 208 2.12 199 2.12 201 2.12
  78  0.750  0.375  0.550- 207 2.08 232 2.10 208 2.10 223 2.11 202 2.11 206 2.15
  79  0.625  0.376  0.650- 222 2.10 229 2.12 206 2.13 205 2.14 207 2.14
  80  0.750  0.250  0.646- 208 2.07 205 2.08 221 2.10 198 2.10 206 2.11
  81  0.875  0.000  0.352- 148 2.10 196 2.10 211 2.10 251 2.10 209 2.10
  82  0.500  0.125  0.352- 147 2.10 195 2.10 212 2.10 220 2.10 210 2.10
  83  0.875  0.125  0.451- 146 2.10 194 2.10 209 2.10 217 2.10 211 2.10 215 2.10
  84  0.500  0.000  0.451- 145 2.10 193 2.10 210 2.10 250 2.10 212 2.10 216 2.11
  85  0.875  1.000  0.550- 215 2.10 200 2.10 255 2.10 152 2.10 209 2.11 213 2.13
  86  0.500  0.125  0.550- 224 2.08 199 2.10 151 2.10 216 2.11 210 2.11 214 2.15
  87  0.875  0.125  0.647- 215 2.09 198 2.10 150 2.10 221 2.10 213 2.10
  88  0.500  1.000  0.647- 216 2.08 214 2.09 254 2.10 197 2.11 149 2.11
  89  0.875  0.250  0.352- 156 2.10 204 2.10 211 2.10 219 2.10 217 2.10
  90  0.500  0.375  0.352- 155 2.10 203 2.10 220 2.10 244 2.10 218 2.10
  91  0.875  0.375  0.451- 154 2.10 202 2.10 217 2.10 241 2.10 219 2.10 223 2.10
  92  0.500  0.250  0.451- 153 2.10 201 2.10 210 2.10 218 2.10 220 2.10 224 2.11
  93  0.875  0.250  0.550- 208 2.10 160 2.10 223 2.10 215 2.10 217 2.11 221 2.13
  94  0.500  0.375  0.551- 222 2.06 224 2.11 207 2.11 159 2.11 248 2.11 218 2.13
  95  0.875  0.375  0.647- 223 2.08 206 2.09 158 2.10 221 2.11 245 2.11
  96  0.501  0.250  0.650- 222 2.10 205 2.12 214 2.12 157 2.14 224 2.15
  97  0.625  0.500  0.352- 203 2.10 227 2.10 228 2.10 244 2.10 225 2.10
  98  0.750  0.625  0.352- 227 2.10 228 2.10 236 2.10 243 2.10 226 2.10
  99  0.625  0.625  0.451- 231 2.10 226 2.10 225 2.10 233 2.10 242 2.10 227 2.10
 100  0.750  0.500  0.451- 232 2.10 225 2.10 226 2.10 202 2.10 241 2.10 228 2.10
 101  0.625  0.500  0.550- 207 2.09 248 2.09 229 2.10 232 2.12 231 2.12 225 2.12
 102  0.750  0.625  0.549- 232 2.10 247 2.10 240 2.10 231 2.10 226 2.10 230 2.13
 103  0.626  0.625  0.646- 231 2.07 229 2.08 230 2.10 237 2.10 246 2.11
 104  0.750  0.500  0.647- 232 2.08 229 2.08 245 2.10 230 2.10 206 2.11
 105  0.625  0.750  0.352- 227 2.10 235 2.10 236 2.10 252 2.10 233 2.10
 106  0.750  0.875  0.352- 196 2.10 235 2.10 236 2.10 251 2.10 234 2.10
 107  0.625  0.875  0.451- 193 2.10 233 2.10 234 2.10 250 2.10 235 2.10 239 2.10
 108  0.750  0.750  0.451- 226 2.10 233 2.10 234 2.10 249 2.10 236 2.10 240 2.10
 109  0.625  0.750  0.549- 231 2.10 239 2.10 256 2.10 240 2.10 233 2.11 237 2.13
 110  0.750  0.875  0.550- 200 2.10 240 2.10 255 2.10 239 2.10 234 2.11 238 2.13
 111  0.625  0.875  0.647- 239 2.09 197 2.10 237 2.10 238 2.10 254 2.10
 112  0.750  0.750  0.647- 240 2.09 230 2.10 238 2.10 237 2.10 253 2.10
 113  0.875  0.500  0.352- 180 2.10 219 2.10 228 2.10 243 2.10 241 2.10
 114  0.500  0.625  0.352- 179 2.10 227 2.10 244 2.10 252 2.10 242 2.10
 115  0.875  0.625  0.451- 178 2.10 226 2.10 241 2.10 249 2.10 243 2.10 247 2.10
 116  0.500  0.500  0.451- 177 2.10 218 2.10 225 2.10 242 2.10 244 2.10 248 2.11
 117  0.875  0.500  0.550- 232 2.10 184 2.10 223 2.10 247 2.10 241 2.11 245 2.13
 118  0.500  0.625  0.550- 248 2.08 183 2.10 231 2.10 256 2.11 242 2.11 246 2.16
 119  0.875  0.625  0.647- 247 2.09 230 2.10 182 2.10 245 2.10 253 2.10
 120  0.499  0.499  0.650- 222 2.09 181 2.12 246 2.13 248 2.13 229 2.14
 121  0.875  0.750  0.352- 188 2.10 236 2.10 243 2.10 251 2.10 249 2.10
 122  0.500  0.875  0.352- 187 2.10 212 2.10 235 2.10 252 2.10 250 2.10
 123  0.875  0.875  0.451- 186 2.10 209 2.10 234 2.10 249 2.10 251 2.10 255 2.10
 124  0.500  0.750  0.451- 185 2.10 233 2.10 242 2.10 250 2.10 252 2.10 256 2.11
 125  0.875  0.750  0.550- 240 2.10 247 2.10 192 2.10 255 2.10 249 2.11 253 2.13
 126  0.500  0.875  0.550- 216 2.10 191 2.10 239 2.10 256 2.10 250 2.11 254 2.13
 127  0.875  0.875  0.647- 255 2.09 213 2.10 253 2.10 190 2.10 238 2.10
 128  0.500  0.750  0.647- 256 2.08 246 2.09 254 2.10 189 2.10 237 2.11
 129  0.125  0.000  0.451-   3 2.10   4 2.10  20 2.10  43 2.10   1 2.10   5 2.11
 130  0.250  0.125  0.451-   3 2.10   4 2.10  12 2.10  19 2.10   2 2.10   6 2.10
 131  0.125  0.125  0.352-   1 2.10   2 2.10   9 2.10  18 2.10   3 2.10
 132  0.250  0.000  0.352-   1 2.10   2 2.10  17 2.10  42 2.10   4 2.10
 133  0.125  1.000  0.650-  47 2.10  24 2.10   8 2.10   7 2.10   5 2.13
 134  0.250  0.125  0.649-   8 2.10   7 2.10  23 2.10  16 2.10   6 2.13
 135  0.125  0.125  0.549-   7 2.09  22 2.10   5 2.10   6 2.10   3 2.10  13 2.10
 136  0.250  1.000  0.549-   8 2.09  46 2.10   5 2.10   4 2.10   6 2.10  21 2.10
 137  0.125  0.250  0.451-   3 2.10  11 2.10  12 2.10  28 2.10   9 2.10  13 2.11
 138  0.250  0.375  0.451-  11 2.10  12 2.10  27 2.10  36 2.10  10 2.10  14 2.11
 139  0.125  0.375  0.352-   9 2.10  10 2.10  26 2.10  33 2.10  11 2.10
 140  0.250  0.250  0.352-   2 2.10   9 2.10  10 2.10  25 2.10  12 2.10
 141  0.125  0.250  0.650-  32 2.10   7 2.10  16 2.10  15 2.11  13 2.13
 142  0.249  0.375  0.651-  15 2.09  40 2.11  16 2.11  31 2.13  14 2.15
 143  0.125  0.375  0.549-  15 2.08  37 2.10  30 2.10  13 2.10  11 2.10  14 2.11
 144  0.250  0.250  0.549-  16 2.08  13 2.10   6 2.10  12 2.10  14 2.10  29 2.12
 145  0.375  0.000  0.451-   4 2.10  19 2.10  59 2.10  84 2.10  17 2.10  21 2.11
 146  0.000  0.125  0.451-   3 2.10  20 2.10  28 2.10  83 2.10  18 2.10  22 2.11
 147  0.375  0.125  0.352-   2 2.10  17 2.10  25 2.10  82 2.10  19 2.10
 148  0.000  0.000  0.352-   1 2.10  18 2.10  58 2.10  81 2.10  20 2.10
 149  0.375  1.000  0.650-  63 2.10   8 2.10  23 2.10  88 2.11  21 2.13
 150  0.000  0.125  0.650-   7 2.10  87 2.10  24 2.10  32 2.10  22 2.13
 151  0.375  0.125  0.549-  23 2.07  21 2.10  19 2.10   6 2.10  86 2.10  29 2.12
 152  0.000  1.000  0.549-  24 2.09  62 2.10   5 2.10  85 2.10  22 2.10  20 2.10
 153  0.375  0.250  0.451-  12 2.10  19 2.10  27 2.10  92 2.10  25 2.10  29 2.12
 154  0.000  0.375  0.451-  11 2.10  28 2.10  52 2.10  91 2.10  26 2.10  30 2.11
 155  0.375  0.375  0.352-  10 2.10  25 2.10  49 2.10  90 2.10  27 2.10
 156  0.000  0.250  0.352-   9 2.10  18 2.10  26 2.10  89 2.10  28 2.10
 157  0.374  0.249  0.649-  23 2.08  16 2.08  29 2.10  31 2.11  96 2.14
 158  0.000  0.375  0.650-  95 2.10  15 2.10  56 2.10  32 2.10  30 2.13
 159  0.374  0.375  0.550-  14 2.08  29 2.09  53 2.09  27 2.11  94 2.11  31 2.14
 160  0.000  0.250  0.549-  32 2.09  93 2.10  13 2.10  30 2.10  22 2.10  28 2.10
 161  0.125  0.500  0.451-  11 2.10  35 2.10  36 2.10  52 2.10  33 2.10  37 2.11
 162  0.250  0.625  0.451-  35 2.10  36 2.10  44 2.10  51 2.10  34 2.10  38 2.10
 163  0.125  0.625  0.352-  33 2.10  34 2.10  41 2.10  50 2.10  35 2.10
 164  0.250  0.500  0.352-  10 2.10  33 2.10  34 2.10  49 2.10  36 2.10
 165  0.125  0.500  0.650-  56 2.10  39 2.10  40 2.10  15 2.11  37 2.13
 166  0.250  0.625  0.649-  48 2.10  39 2.10  40 2.10  55 2.10  38 2.13
 167  0.125  0.625  0.549-  39 2.09  54 2.10  45 2.10  35 2.10  38 2.10  37 2.10
 168  0.250  0.500  0.549-  40 2.07  37 2.10  36 2.10  38 2.10  14 2.10  53 2.12
 169  0.125  0.750  0.451-  35 2.10  43 2.10  44 2.10  60 2.10  41 2.10  45 2.11
 170  0.250  0.875  0.451-   4 2.10  43 2.10  44 2.10  59 2.10  42 2.10  46 2.11
 171  0.125  0.875  0.352-   1 2.10  41 2.10  42 2.10  58 2.10  43 2.10
 172  0.250  0.750  0.352-  34 2.10  41 2.10  42 2.10  57 2.10  44 2.10
 173  0.125  0.750  0.650-  64 2.10  47 2.10  39 2.10  48 2.10  45 2.13
 174  0.250  0.875  0.650-  48 2.10   8 2.10  47 2.10  63 2.10  46 2.13
 175  0.125  0.875  0.549-  47 2.09  62 2.10   5 2.10  45 2.10  46 2.10  43 2.10
 176  0.250  0.750  0.549-  48 2.09  46 2.10  45 2.10  38 2.10  44 2.10  61 2.10
 177  0.375  0.500  0.451-  27 2.10  36 2.10  51 2.10 116 2.10  49 2.10  53 2.12
 178  0.000  0.625  0.451-  35 2.10  52 2.10  60 2.10 115 2.10  50 2.10  54 2.11
 179  0.375  0.625  0.352-  34 2.10  49 2.10  57 2.10 114 2.10  51 2.10
 180  0.000  0.500  0.352-  26 2.10  33 2.10  50 2.10 113 2.10  52 2.10
 181  0.373  0.501  0.649-  40 2.08  55 2.08  53 2.10 120 2.12  31 2.14
 182  1.000  0.625  0.650-  39 2.10 119 2.10  64 2.10  56 2.10  54 2.13
 183  0.375  0.625  0.549-  55 2.07  61 2.10 118 2.10  51 2.10  38 2.10  53 2.12
 184  1.000  0.500  0.549-  56 2.09  37 2.10 117 2.10  30 2.10  54 2.10  52 2.10
 185  0.375  0.750  0.451-  44 2.10  51 2.10  59 2.10 124 2.10  57 2.10  61 2.11
 186  0.000  0.875  0.451-  20 2.10  43 2.10  60 2.10 123 2.10  58 2.10  62 2.11
 187  0.375  0.875  0.352-  17 2.10  42 2.10  57 2.10 122 2.10  59 2.10
 188  0.000  0.750  0.352-  41 2.10  50 2.10  58 2.10 121 2.10  60 2.10
 189  0.375  0.750  0.650-  63 2.10  48 2.10  55 2.10 128 2.10  61 2.13
 190  0.000  0.875  0.650-  64 2.10 127 2.10  47 2.10  24 2.10  62 2.13
 191  0.375  0.875  0.549-  63 2.09  21 2.10  61 2.10 126 2.10  46 2.10  59 2.10
 192  1.000  0.750  0.549-  64 2.09  62 2.10  45 2.10 125 2.10  54 2.10  60 2.10
 193  0.625  0.000  0.451-  67 2.10  68 2.10  84 2.10 107 2.10  65 2.10  69 2.11
 194  0.750  0.125  0.451-  67 2.10  68 2.10  76 2.10  83 2.10  66 2.10  70 2.10
 195  0.625  0.125  0.352-  65 2.10  66 2.10  73 2.10  82 2.10  67 2.10
 196  0.750  0.000  0.352-  65 2.10  66 2.10  81 2.10 106 2.10  68 2.10
 197  0.625  1.000  0.650- 111 2.10  72 2.10  71 2.10  88 2.11  69 2.13
 198  0.750  0.125  0.649-  72 2.09  87 2.10  80 2.10  71 2.10  70 2.13
 199  0.625  0.125  0.549-  71 2.08  69 2.10  67 2.10  70 2.10  86 2.10  77 2.12
 200  0.750  1.000  0.549-  72 2.09 110 2.10  85 2.10  70 2.10  68 2.10  69 2.10
 201  0.625  0.250  0.451-  67 2.10  75 2.10  76 2.10  92 2.10  73 2.10  77 2.12
 202  0.750  0.375  0.451-  75 2.10  76 2.10  91 2.10 100 2.10  74 2.10  78 2.11
 203  0.625  0.375  0.352-  73 2.10  74 2.10  90 2.10  97 2.10  75 2.10
 204  0.750  0.250  0.352-  66 2.10  73 2.10  74 2.10  89 2.10  76 2.10
 205  0.627  0.249  0.649-  80 2.08  71 2.08  77 2.10  96 2.12  79 2.14
 206  0.751  0.375  0.651-  95 2.09  80 2.11 104 2.11  79 2.13  78 2.15
 207  0.626  0.375  0.550-  78 2.08 101 2.09  77 2.09  75 2.11  94 2.11  79 2.14
 208  0.750  0.250  0.549-  80 2.07  93 2.10  76 2.10  70 2.10  78 2.10  77 2.12
 209  0.875  0.000  0.451-  20 2.10  68 2.10  83 2.10 123 2.10  81 2.10  85 2.11
 210  0.500  0.125  0.451-  19 2.10  67 2.10  84 2.10  92 2.10  82 2.10  86 2.11
 211  0.875  0.125  0.352-  18 2.10  66 2.10  81 2.10  89 2.10  83 2.10
 212  0.500  0.000  0.352-  17 2.10  65 2.10  82 2.10 122 2.10  84 2.10
 213  0.875  1.000  0.650- 127 2.10  24 2.10  87 2.10  72 2.10  85 2.13
 214  0.500  0.124  0.651-  88 2.09  23 2.11  71 2.11  96 2.12  86 2.15
 215  0.875  0.125  0.549-  87 2.09  22 2.10  85 2.10  83 2.10  70 2.10  93 2.10
 216  0.500  1.000  0.550-  88 2.08 126 2.10  21 2.10  69 2.10  84 2.11  86 2.11
 217  0.875  0.250  0.451-  28 2.10  76 2.10  83 2.10  91 2.10  89 2.10  93 2.11
 218  0.500  0.375  0.451-  27 2.10  75 2.10  92 2.10 116 2.10  90 2.10  94 2.13
 219  0.875  0.375  0.352-  26 2.10  74 2.10  89 2.10 113 2.10  91 2.10
 220  0.500  0.250  0.352-  25 2.10  73 2.10  82 2.10  90 2.10  92 2.10
 221  0.875  0.250  0.650-  32 2.10  87 2.10  80 2.10  95 2.11  93 2.13
 222  0.500  0.375  0.647-  94 2.06 120 2.09  31 2.09  79 2.10  96 2.10
 223  0.875  0.375  0.549-  95 2.08 117 2.10  30 2.10  93 2.10  91 2.10  78 2.11
 224  0.500  0.249  0.550-  86 2.08  77 2.09  29 2.09  92 2.11  94 2.11  96 2.15
 225  0.625  0.500  0.451-  75 2.10  99 2.10 100 2.10 116 2.10  97 2.10 101 2.12
 226  0.750  0.625  0.451-  99 2.10 100 2.10 108 2.10 115 2.10  98 2.10 102 2.10
 227  0.625  0.625  0.352-  97 2.10  98 2.10 105 2.10 114 2.10  99 2.10
 228  0.750  0.500  0.352-  74 2.10  97 2.10  98 2.10 113 2.10 100 2.10
 229  0.626  0.502  0.649- 103 2.08 104 2.08 101 2.10  79 2.12 120 2.14
 230  0.750  0.626  0.649- 119 2.10 112 2.10 103 2.10 104 2.10 102 2.13
 231  0.625  0.625  0.549- 103 2.07 109 2.10  99 2.10 118 2.10 102 2.10 101 2.12
 232  0.750  0.500  0.549- 104 2.08 117 2.10 100 2.10 102 2.10  78 2.10 101 2.12
 233  0.625  0.750  0.451-  99 2.10 107 2.10 108 2.10 124 2.10 105 2.10 109 2.11
 234  0.750  0.875  0.451-  68 2.10 107 2.10 108 2.10 123 2.10 106 2.10 110 2.11
 235  0.625  0.875  0.352-  65 2.10 105 2.10 106 2.10 122 2.10 107 2.10
 236  0.750  0.750  0.352-  98 2.10 105 2.10 106 2.10 121 2.10 108 2.10
 237  0.625  0.750  0.650- 111 2.10 112 2.10 103 2.10 128 2.11 109 2.13
 238  0.750  0.875  0.650- 112 2.10  72 2.10 127 2.10 111 2.10 110 2.13
 239  0.625  0.875  0.549- 111 2.09 109 2.10  69 2.10 126 2.10 110 2.10 107 2.10
 240  0.750  0.750  0.549- 112 2.09 110 2.10 125 2.10 108 2.10 102 2.10 109 2.10
 241  0.875  0.500  0.451-  52 2.10  91 2.10 100 2.10 115 2.10 113 2.10 117 2.11
 242  0.500  0.625  0.451-  51 2.10  99 2.10 116 2.10 124 2.10 114 2.10 118 2.11
 243  0.875  0.625  0.352-  50 2.10  98 2.10 113 2.10 121 2.10 115 2.10
 244  0.500  0.500  0.352-  49 2.10  90 2.10  97 2.10 114 2.10 116 2.10
 245  0.875  0.500  0.650-  56 2.10 119 2.10 104 2.10  95 2.11 117 2.13
 246  0.500  0.626  0.651- 128 2.09 103 2.11  55 2.11 120 2.13 118 2.16
 247  0.875  0.625  0.549- 119 2.09  54 2.10 125 2.10 102 2.10 115 2.10 117 2.10
 248  0.500  0.501  0.550- 118 2.08  53 2.09 101 2.09 116 2.11  94 2.11 120 2.13
 249  0.875  0.750  0.451-  60 2.10 108 2.10 115 2.10 123 2.10 121 2.10 125 2.11
 250  0.500  0.875  0.451-  59 2.10  84 2.10 107 2.10 124 2.10 122 2.10 126 2.11
 251  0.875  0.875  0.352-  58 2.10  81 2.10 106 2.10 121 2.10 123 2.10
 252  0.500  0.750  0.352-  57 2.10 105 2.10 114 2.10 122 2.10 124 2.10
 253  0.875  0.750  0.650-  64 2.10 127 2.10 112 2.10 119 2.10 125 2.13
 254  0.500  0.875  0.650- 128 2.10  88 2.10 111 2.10  63 2.10 126 2.13
 255  0.875  0.875  0.549- 127 2.09  62 2.10  85 2.10 125 2.10 110 2.10 123 2.10
 256  0.500  0.750  0.550- 128 2.08  61 2.10 109 2.10 126 2.10 124 2.11 118 2.11


IMPORTANT INFORMATION: All symmetrisations will be switched off!
NOSYMM: (Re-)initialisation of all symmetry stuff for point group C_1.


----------------------------------------------------------------------------------------

                                     Primitive cell                                     

  volume of cell :    6019.7037

  direct lattice vectors                    reciprocal lattice vectors
    16.809723990  0.000000000  0.000000000     0.059489377  0.000000000  0.000000000
     0.000000000 16.809723990  0.000000000     0.000000000  0.059489377  0.000000000
     0.000000000  0.000000000 21.303646496     0.000000000  0.000000000  0.046940321

  length of vectors
    16.809723990 16.809723990 21.303646496     0.059489377  0.059489377  0.046940321

  position of ions in fractional coordinates (direct lattice)
     0.125000000  0.000000000  0.352052406
     0.250000000  0.125000000  0.352052406
     0.125000000  0.125000000  0.450684135
     0.250000000  0.000000000  0.450684135
     0.124984140  0.999978861  0.549671901
     0.249913573  0.124978801  0.549448337
     0.124921945  0.124871556  0.647315951
     0.249863735  0.999913729  0.647311719
     0.125000000  0.250000000  0.352052406
     0.250000000  0.375000000  0.352052406
     0.125000000  0.375000000  0.450684135
     0.250000000  0.250000000  0.450684135
     0.124941955  0.250032632  0.549567895
     0.250402639  0.374961324  0.549795126
     0.124865275  0.375023887  0.647272401
     0.249864603  0.249625822  0.646719859
     0.375000000  0.000000000  0.352052406
     0.000000000  0.125000000  0.352052406
     0.375000000  0.125000000  0.450684135
     0.000000000  0.000000000  0.450684135
     0.375013683  0.999885038  0.549512382
     0.000005048  0.124959673  0.549664161
     0.374616305  0.124859420  0.646315080
     0.000007258  0.999940803  0.647378734
     0.375000000  0.250000000  0.352052406
     0.000000000  0.375000000  0.352052406
     0.375000000  0.375000000  0.450684135
     0.000000000  0.250000000  0.450684135
     0.375548942  0.250438107  0.550164960
     0.000003145  0.374999406  0.549651328
     0.375461844  0.374327286  0.650082616
     0.000013682  0.249894865  0.647310600
     0.125000000  0.500000000  0.352052406
     0.250000000  0.625000000  0.352052406
     0.125000000  0.625000000  0.450684135
     0.250000000  0.500000000  0.450684135
     0.124864034  0.499991627  0.549503230
     0.249965927  0.625104047  0.549439641
     0.124892512  0.625152647  0.647307960
     0.249822721  0.500444179  0.646273300
     0.125000000  0.750000000  0.352052406
     0.250000000  0.875000000  0.352052406
     0.125000000  0.875000000  0.450684135
     0.250000000  0.750000000  0.450684135
     0.124974201  0.750021427  0.549670479
     0.249955749  0.875000677  0.549663379
     0.124936880  0.875001263  0.647368519
     0.249866396  0.750088609  0.647311487
     0.375000000  0.500000000  0.352052406
     0.000000000  0.625000000  0.352052406
     0.375000000  0.625000000  0.450684135
     0.000000000  0.500000000  0.450684135
     0.375403511  0.499493892  0.550117522
     0.999994111  0.625044498  0.549660121
     0.374606052  0.625162018  0.646722863
     0.999986599  0.500115628  0.647318984
     0.375000000  0.750000000  0.352052406
     0.000000000  0.875000000  0.352052406
     0.375000000  0.875000000  0.450684135
     0.000000000  0.750000000  0.450684135
     0.375030409  0.750077292  0.549565201
     0.000000025  0.874999673  0.549674031
     0.374891933  0.875003246  0.647312527
     0.999993941  0.750062902  0.647367481
     0.625000000  0.000000000  0.352052406
     0.750000000  0.125000000  0.352052406
     0.625000000  0.125000000  0.450684135
     0.750000000  0.000000000  0.450684135
     0.624968059  0.999943219  0.549560169
     0.750022502  0.124904469  0.549434921
     0.625364086  0.124850287  0.646690063
     0.750125406  0.999928316  0.647316407
     0.625000000  0.250000000  0.352052406
     0.750000000  0.375000000  0.352052406
     0.625000000  0.375000000  0.450684135
     0.750000000  0.250000000  0.450684135
     0.624546830  0.250528825  0.550169887
     0.749596686  0.375018785  0.549800400
     0.624619871  0.375710167  0.650250035
     0.750175995  0.249549308  0.646270315
     0.875000000  0.000000000  0.352052406
     0.500000000  0.125000000  0.352052406
     0.875000000  0.125000000  0.450684135
     0.500000000  0.000000000  0.450684135
     0.875020090  0.999982696  0.549671596
     0.500036991  0.125417717  0.549815482
     0.875101918  0.124845388  0.647307779
     0.499989256  0.999892717  0.647267256
     0.875000000  0.250000000  0.352052406
     0.500000000  0.375000000  0.352052406
     0.875000000  0.375000000  0.450684135
     0.500000000  0.250000000  0.450684135
     0.875126878  0.250010502  0.549502457
     0.500044943  0.374906546  0.550704412
     0.875150996  0.374989248  0.647254508
     0.500737010  0.250371657  0.650341149
     0.625000000  0.500000000  0.352052406
     0.750000000  0.625000000  0.352052406
     0.625000000  0.625000000  0.450684135
     0.750000000  0.500000000  0.450684135
     0.624544196  0.499541306  0.550125447
     0.750125050  0.625034896  0.549424530
     0.625529939  0.625212080  0.646211141
     0.750184812  0.500376163  0.646688690
     0.625000000  0.750000000  0.352052406
     0.750000000  0.875000000  0.352052406
     0.625000000  0.875000000  0.450684135
     0.750000000  0.750000000  0.450684135
     0.624997590  0.750158696  0.549494870
     0.750048406  0.875012664  0.549661323
     0.625112388  0.875034001  0.647309433
     0.750172052  0.750123929  0.647302858
     0.875000000  0.500000000  0.352052406
     0.500000000  0.625000000  0.352052406
     0.875000000  0.625000000  0.450684135
     0.500000000  0.500000000  0.450684135
     0.875071663  0.499966030  0.549556174
     0.499977728  0.624634519  0.549781200
     0.875090175  0.625133584  0.647313750
     0.499326510  0.499398002  0.649860088
     0.875000000  0.750000000  0.352052406
     0.500000000  0.875000000  0.352052406
     0.875000000  0.875000000  0.450684135
     0.500000000  0.750000000  0.450684135
     0.875023981  0.750026232  0.549670033
     0.499997722  0.875009676  0.549655408
     0.875069483  0.875016280  0.647368255
     0.500023840  0.750173140  0.647297072
     0.125000000  0.000000000  0.450684135
     0.250000000  0.125000000  0.450684135
     0.125000000  0.125000000  0.352052406
     0.250000000  0.000000000  0.352052406
     0.124871485  0.999862175  0.649655208
     0.249535503  0.124517931  0.649491657
     0.124867750  0.124901886  0.549386907
     0.249906333  0.999879269  0.549389647
     0.125000000  0.250000000  0.450684135
     0.250000000  0.375000000  0.450684135
     0.125000000  0.375000000  0.352052406
     0.250000000  0.250000000  0.352052406
     0.124820267  0.249831590  0.649623658
     0.249034415  0.375147194  0.650920405
     0.124983081  0.375026114  0.549491658
     0.249610784  0.249961489  0.549309381
     0.375000000  0.000000000  0.450684135
     0.000000000  0.125000000  0.450684135
     0.375000000  0.125000000  0.352052406
     0.000000000  0.000000000  0.352052406
     0.374783645  0.999794513  0.649603521
     0.000014696  0.124895059  0.649677318
     0.374934373  0.124590499  0.549198006
     0.000002974  0.999958296  0.549462993
     0.375000000  0.250000000  0.450684135
     0.000000000  0.375000000  0.450684135
     0.375000000  0.375000000  0.352052406
     0.000000000  0.250000000  0.352052406
     0.373659529  0.248534154  0.648914337
     0.000004028  0.375005203  0.649705209
     0.374383292  0.374948266  0.549638112
     0.000016722  0.249993985  0.549400539
     0.125000000  0.500000000  0.450684135
     0.250000000  0.625000000  0.450684135
     0.125000000  0.625000000  0.352052406
     0.250000000  0.500000000  0.352052406
     0.124806697  0.500224572  0.649594984
     0.249521710  0.625465795  0.649475274
     0.124873964  0.625090920  0.549377794
     0.249580115  0.500073967  0.549177504
     0.125000000  0.750000000  0.450684135
     0.250000000  0.875000000  0.450684135
     0.125000000  0.875000000  0.352052406
     0.250000000  0.750000000  0.352052406
     0.124861154  0.750133858  0.649648009
     0.249890108  0.874994200  0.649670767
     0.124960797  0.875002381  0.549425196
     0.249915768  0.750119501  0.549382890
     0.375000000  0.500000000  0.450684135
     0.000000000  0.625000000  0.450684135
     0.375000000  0.625000000  0.352052406
     0.000000000  0.500000000  0.352052406
     0.373491774  0.501394128  0.648840718
     0.999992249  0.625121986  0.649677758
     0.375001541  0.625398985  0.549323175
     0.999991889  0.500015816  0.549431915
     0.375000000  0.750000000  0.450684135
     0.000000000  0.875000000  0.450684135
     0.375000000  0.875000000  0.352052406
     0.000000000  0.750000000  0.352052406
     0.374835424  0.750184099  0.649621145
     0.000002782  0.874994854  0.649630844
     0.374996978  0.874991265  0.549393254
     0.999999870  0.750036348  0.549429290
     0.625000000  0.000000000  0.450684135
     0.750000000  0.125000000  0.450684135
     0.625000000  0.125000000  0.352052406
     0.750000000  0.000000000  0.352052406
     0.625192331  0.999798635  0.649633981
     0.750498565  0.124510460  0.649479281
     0.625050286  0.124593475  0.549285020
     0.750088353  0.999872746  0.549389095
     0.625000000  0.250000000  0.450684135
     0.750000000  0.375000000  0.450684135
     0.625000000  0.375000000  0.352052406
     0.750000000  0.250000000  0.352052406
     0.626561893  0.248647004  0.648868348
     0.751047315  0.374915069  0.650875350
     0.625637956  0.375070424  0.549637670
     0.750427835  0.249927981  0.549186731
     0.875000000  0.000000000  0.450684135
     0.500000000  0.125000000  0.450684135
     0.875000000  0.125000000  0.352052406
     0.500000000  0.000000000  0.352052406
     0.875139491  0.999861428  0.649655827
     0.499923492  0.124012891  0.650802038
     0.875138097  0.124886334  0.549382977
     0.499987570  0.999971321  0.549513160
     0.875000000  0.250000000  0.450684135
     0.500000000  0.375000000  0.450684135
     0.875000000  0.375000000  0.352052406
     0.500000000  0.250000000  0.352052406
     0.875209382  0.249786081  0.649581755
     0.500038105  0.375029588  0.647304875
     0.875034123  0.375005362  0.549480128
     0.500065175  0.249404392  0.549647689
     0.625000000  0.500000000  0.450684135
     0.750000000  0.625000000  0.450684135
     0.625000000  0.625000000  0.352052406
     0.750000000  0.500000000  0.352052406
     0.626394933  0.501602858  0.648815148
     0.750489727  0.625502808  0.649456423
     0.625037014  0.625428312  0.549181439
     0.750420204  0.500061401  0.549283885
     0.625000000  0.750000000  0.450684135
     0.750000000  0.875000000  0.450684135
     0.625000000  0.875000000  0.352052406
     0.750000000  0.750000000  0.352052406
     0.625218113  0.750211247  0.649570401
     0.750116393  0.875017395  0.649672005
     0.625001481  0.875021429  0.549389846
     0.750099115  0.750122898  0.549376732
     0.875000000  0.500000000  0.450684135
     0.500000000  0.625000000  0.450684135
     0.875000000  0.625000000  0.352052406
     0.500000000  0.500000000  0.352052406
     0.875195189  0.500195539  0.649623838
     0.500158703  0.625982285  0.651119982
     0.875136982  0.625083042  0.549376000
     0.499944094  0.500606303  0.549656841
     0.875000000  0.750000000  0.450684135
     0.500000000  0.875000000  0.450684135
     0.875000000  0.875000000  0.352052406
     0.500000000  0.750000000  0.352052406
     0.875143693  0.750143419  0.649648492
     0.500002560  0.874994797  0.649706382
     0.875041356  0.875005468  0.549424873
     0.500010128  0.749992912  0.549515171

  ion indices of the primitive-cell ions
   primitive index   ion index
                 1           1
                 2           2
                 3           3
                 4           4
                 5           5
                 6           6
                 7           7
                 8           8
                 9           9
                10          10
                11          11
                12          12
                13          13
                14          14
                15          15
                16          16
                17          17
                18          18
                19          19
                20          20
                21          21
                22          22
                23          23
                24          24
                25          25
                26          26
                27          27
                28          28
                29          29
                30          30
                31          31
                32          32
                33          33
                34          34
                35          35
                36          36
                37          37
                38          38
                39          39
                40          40
                41          41
                42          42
                43          43
                44          44
                45          45
                46          46
                47          47
                48          48
                49          49
                50          50
                51          51
                52          52
                53          53
                54          54
                55          55
                56          56
                57          57
                58          58
                59          59
                60          60
                61          61
                62          62
                63          63
                64          64
                65          65
                66          66
                67          67
                68          68
                69          69
                70          70
                71          71
                72          72
                73          73
                74          74
                75          75
                76          76
                77          77
                78          78
                79          79
                80          80
                81          81
                82          82
                83          83
                84          84
                85          85
                86          86
                87          87
                88          88
                89          89
                90          90
                91          91
                92          92
                93          93
                94          94
                95          95
                96          96
                97          97
                98          98
                99          99
               100         100
               101         101
               102         102
               103         103
               104         104
               105         105
               106         106
               107         107
               108         108
               109         109
               110         110
               111         111
               112         112
               113         113
               114         114
               115         115
               116         116
               117         117
               118         118
               119         119
               120         120
               121         121
               122         122
               123         123
               124         124
               125         125
               126         126
               127         127
               128         128
               129         129
               130         130
               131         131
               132         132
               133         133
               134         134
               135         135
               136         136
               137         137
               138         138
               139         139
               140         140
               141         141
               142         142
               143         143
               144         144
               145         145
               146         146
               147         147
               148         148
               149         149
               150         150
               151         151
               152         152
               153         153
               154         154
               155         155
               156         156
               157         157
               158         158
               159         159
               160         160
               161         161
               162         162
               163         163
               164         164
               165         165
               166         166
               167         167
               168         168
               169         169
               170         170
               171         171
               172         172
               173         173
               174         174
               175         175
               176         176
               177         177
               178         178
               179         179
               180         180
               181         181
               182         182
               183         183
               184         184
               185         185
               186         186
               187         187
               188         188
               189         189
               190         190
               191         191
               192         192
               193         193
               194         194
               195         195
               196         196
               197         197
               198         198
               199         199
               200         200
               201         201
               202         202
               203         203
               204         204
               205         205
               206         206
               207         207
               208         208
               209         209
               210         210
               211         211
               212         212
               213         213
               214         214
               215         215
               216         216
               217         217
               218         218
               219         219
               220         220
               221         221
               222         222
               223         223
               224         224
               225         225
               226         226
               227         227
               228         228
               229         229
               230         230
               231         231
               232         232
               233         233
               234         234
               235         235
               236         236
               237         237
               238         238
               239         239
               240         240
               241         241
               242         242
               243         243
               244         244
               245         245
               246         246
               247         247
               248         248
               249         249
               250         250
               251         251
               252         252
               253         253
               254         254
               255         255
               256         256

----------------------------------------------------------------------------------------



 KPOINTS: pymatgen v2020.8.13 with grid density = 

Automatic generation of k-mesh.
 Grid dimensions read from file:
 generate k-points for:    1    1    1

 Generating k-lattice:

  Cartesian coordinates                     Fractional coordinates (reciprocal lattice)
     0.059489377  0.000000000  0.000000000     1.000000000  0.000000000  0.000000000
     0.000000000  0.059489377  0.000000000     0.000000000  1.000000000  0.000000000
     0.000000000  0.000000000  0.046940321     0.000000000  0.000000000  1.000000000

  Length of vectors
     0.059489377  0.059489377  0.046940321

  Shift w.r.t. Gamma in fractional coordinates (k-lattice)
     0.000000000  0.000000000  0.000000000

 
 Subroutine IBZKPT returns following result:
 ===========================================
 
 Found      1 irreducible k-points:
 
 Following reciprocal coordinates:
            Coordinates               Weight
  0.000000  0.000000  0.000000      1.000000
 
 Following cartesian coordinates:
            Coordinates               Weight
  0.000000  0.000000  0.000000      1.000000
 
 
 Subroutine IBZKPT_HF returns following result:
 ==============================================
 
 Found      1 k-points in 1st BZ
 the following      1 k-points will be used (e.g. in the exchange kernel)
 Following reciprocal coordinates:   # in IRBZ
  0.000000  0.000000  0.000000    1.00000000   1 t-inv F


--------------------------------------------------------------------------------------------------------




 Dimension of arrays:
   k-points           NKPTS =      1   k-points in BZ     NKDIM =      1   number of bands    NBANDS=   1152
   number of dos      NEDOS =    301   number of ions     NIONS =    256
   non local maximal  LDIM  =      5   non local SUM 2l+1 LMDIM =     13
   total plane-waves  NPLWV = ******
   max r-space proj   IRMAX =   3796   max aug-charges    IRDMAX=   8515
   dimension x,y,z NGX =   126 NGY =  126 NGZ =  160
   dimension x,y,z NGXF=   252 NGYF=  252 NGZF=  320
   support grid    NGXF=   252 NGYF=  252 NGZF=  320
   ions per type =             128 128
   NGX,Y,Z   is equivalent  to a cutoff of  12.46, 12.46, 12.49 a.u.
   NGXF,Y,Z  is equivalent  to a cutoff of  24.92, 24.92, 24.97 a.u.

 SYSTEM =  MgO-rocksalt                            
 POSCAR =  Mg  O                                   

--------------------------------------------------------------------------------------------------------


  energy-cutoff  :      520.00
  volume of cell :     6019.70
      direct lattice vectors                 reciprocal lattice vectors
    16.809723990  0.000000000  0.000000000     0.059489377  0.000000000  0.000000000
     0.000000000 16.809723990  0.000000000     0.000000000  0.059489377  0.000000000
     0.000000000  0.000000000 21.303646496     0.000000000  0.000000000  0.046940321

  length of vectors
    16.809723990 16.809723990 21.303646496     0.059489377  0.059489377  0.046940321



 k-points in units of 2pi/SCALE and weight: pymatgen v2020.8.13 with grid density = 
   0.00000000  0.00000000  0.00000000       1.000

 k-points in reciprocal lattice and weights: pymatgen v2020.8.13 with grid density = 
   0.00000000  0.00000000  0.00000000       1.000

 position of ions in fractional coordinates (direct lattice) 
   0.12500000  0.00000000  0.35205241
   0.25000000  0.12500000  0.35205241
   0.12500000  0.12500000  0.45068414
   0.25000000  0.00000000  0.45068414
   0.12498414  0.99997886  0.54967190
   0.24991357  0.12497880  0.54944834
   0.12492194  0.12487156  0.64731595
   0.24986374  0.99991373  0.64731172
   0.12500000  0.25000000  0.35205241
   0.25000000  0.37500000  0.35205241
   0.12500000  0.37500000  0.45068414
   0.25000000  0.25000000  0.45068414
   0.12494196  0.25003263  0.54956789
   0.25040264  0.37496132  0.54979513
   0.12486528  0.37502389  0.64727240
   0.24986460  0.24962582  0.64671986
   0.37500000  0.00000000  0.35205241
   0.00000000  0.12500000  0.35205241
   0.37500000  0.12500000  0.45068414
   0.00000000  0.00000000  0.45068414
   0.37501368  0.99988504  0.54951238
   0.00000505  0.12495967  0.54966416
   0.37461631  0.12485942  0.64631508
   0.00000726  0.99994080  0.64737873
   0.37500000  0.25000000  0.35205241
   0.00000000  0.37500000  0.35205241
   0.37500000  0.37500000  0.45068414
   0.00000000  0.25000000  0.45068414
   0.37554894  0.25043811  0.55016496
   0.00000314  0.37499941  0.54965133
   0.37546184  0.37432729  0.65008262
   0.00001368  0.24989486  0.64731060
   0.12500000  0.50000000  0.35205241
   0.25000000  0.62500000  0.35205241
   0.12500000  0.62500000  0.45068414
   0.25000000  0.50000000  0.45068414
   0.12486403  0.49999163  0.54950323
   0.24996593  0.62510405  0.54943964
   0.12489251  0.62515265  0.64730796
   0.24982272  0.50044418  0.64627330
   0.12500000  0.75000000  0.35205241
   0.25000000  0.87500000  0.35205241
   0.12500000  0.87500000  0.45068414
   0.25000000  0.75000000  0.45068414
   0.12497420  0.75002143  0.54967048
   0.24995575  0.87500068  0.54966338
   0.12493688  0.87500126  0.64736852
   0.24986640  0.75008861  0.64731149
   0.37500000  0.50000000  0.35205241
   0.00000000  0.62500000  0.35205241
   0.37500000  0.62500000  0.45068414
   0.00000000  0.50000000  0.45068414
   0.37540351  0.49949389  0.55011752
   0.99999411  0.62504450  0.54966012
   0.37460605  0.62516202  0.64672286
   0.99998660  0.50011563  0.64731898
   0.37500000  0.75000000  0.35205241
   0.00000000  0.87500000  0.35205241
   0.37500000  0.87500000  0.45068414
   0.00000000  0.75000000  0.45068414
   0.37503041  0.75007729  0.54956520
   0.00000002  0.87499967  0.54967403
   0.37489193  0.87500325  0.64731253
   0.99999394  0.75006290  0.64736748
   0.62500000  0.00000000  0.35205241
   0.75000000  0.12500000  0.35205241
   0.62500000  0.12500000  0.45068414
   0.75000000  0.00000000  0.45068414
   0.62496806  0.99994322  0.54956017
   0.75002250  0.12490447  0.54943492
   0.62536409  0.12485029  0.64669006
   0.75012541  0.99992832  0.64731641
   0.62500000  0.25000000  0.35205241
   0.75000000  0.37500000  0.35205241
   0.62500000  0.37500000  0.45068414
   0.75000000  0.25000000  0.45068414
   0.62454683  0.25052883  0.55016989
   0.74959669  0.37501878  0.54980040
   0.62461987  0.37571017  0.65025004
   0.75017600  0.24954931  0.64627031
   0.87500000  0.00000000  0.35205241
   0.50000000  0.12500000  0.35205241
   0.87500000  0.12500000  0.45068414
   0.50000000  0.00000000  0.45068414
   0.87502009  0.99998270  0.54967160
   0.50003699  0.12541772  0.54981548
   0.87510192  0.12484539  0.64730778
   0.49998926  0.99989272  0.64726726
   0.87500000  0.25000000  0.35205241
   0.50000000  0.37500000  0.35205241
   0.87500000  0.37500000  0.45068414
   0.50000000  0.25000000  0.45068414
   0.87512688  0.25001050  0.54950246
   0.50004494  0.37490655  0.55070441
   0.87515100  0.37498925  0.64725451
   0.50073701  0.25037166  0.65034115
   0.62500000  0.50000000  0.35205241
   0.75000000  0.62500000  0.35205241
   0.62500000  0.62500000  0.45068414
   0.75000000  0.50000000  0.45068414
   0.62454420  0.49954131  0.55012545
   0.75012505  0.62503490  0.54942453
   0.62552994  0.62521208  0.64621114
   0.75018481  0.50037616  0.64668869
   0.62500000  0.75000000  0.35205241
   0.75000000  0.87500000  0.35205241
   0.62500000  0.87500000  0.45068414
   0.75000000  0.75000000  0.45068414
   0.62499759  0.75015870  0.54949487
   0.75004841  0.87501266  0.54966132
   0.62511239  0.87503400  0.64730943
   0.75017205  0.75012393  0.64730286
   0.87500000  0.50000000  0.35205241
   0.50000000  0.62500000  0.35205241
   0.87500000  0.62500000  0.45068414
   0.50000000  0.50000000  0.45068414
   0.87507166  0.49996603  0.54955617
   0.49997773  0.62463452  0.54978120
   0.87509017  0.62513358  0.64731375
   0.49932651  0.49939800  0.64986009
   0.87500000  0.75000000  0.35205241
   0.50000000  0.87500000  0.35205241
   0.87500000  0.87500000  0.45068414
   0.50000000  0.75000000  0.45068414
   0.87502398  0.75002623  0.54967003
   0.49999772  0.87500968  0.54965541
   0.87506948  0.87501628  0.64736825
   0.50002384  0.75017314  0.64729707
   0.12500000  0.00000000  0.45068414
   0.25000000  0.12500000  0.45068414
   0.12500000  0.12500000  0.35205241
   0.25000000  0.00000000  0.35205241
   0.12487149  0.99986217  0.64965521
   0.24953550  0.12451793  0.64949166
   0.12486775  0.12490189  0.54938691
   0.24990633  0.99987927  0.54938965
   0.12500000  0.25000000  0.45068414
   0.25000000  0.37500000  0.45068414
   0.12500000  0.37500000  0.35205241
   0.25000000  0.25000000  0.35205241
   0.12482027  0.24983159  0.64962366
   0.24903442  0.37514719  0.65092040
   0.12498308  0.37502611  0.54949166
   0.24961078  0.24996149  0.54930938
   0.37500000  0.00000000  0.45068414
   0.00000000  0.12500000  0.45068414
   0.37500000  0.12500000  0.35205241
   0.00000000  0.00000000  0.35205241
   0.37478365  0.99979451  0.64960352
   0.00001470  0.12489506  0.64967732
   0.37493437  0.12459050  0.54919801
   0.00000297  0.99995830  0.54946299
   0.37500000  0.25000000  0.45068414
   0.00000000  0.37500000  0.45068414
   0.37500000  0.37500000  0.35205241
   0.00000000  0.25000000  0.35205241
   0.37365953  0.24853415  0.64891434
   0.00000403  0.37500520  0.64970521
   0.37438329  0.37494827  0.54963811
   0.00001672  0.24999399  0.54940054
   0.12500000  0.50000000  0.45068414
   0.25000000  0.62500000  0.45068414
   0.12500000  0.62500000  0.35205241
   0.25000000  0.50000000  0.35205241
   0.12480670  0.50022457  0.64959498
   0.24952171  0.62546579  0.64947527
   0.12487396  0.62509092  0.54937779
   0.24958012  0.50007397  0.54917750
   0.12500000  0.75000000  0.45068414
   0.25000000  0.87500000  0.45068414
   0.12500000  0.87500000  0.35205241
   0.25000000  0.75000000  0.35205241
   0.12486115  0.75013386  0.64964801
   0.24989011  0.87499420  0.64967077
   0.12496080  0.87500238  0.54942520
   0.24991577  0.75011950  0.54938289
   0.37500000  0.50000000  0.45068414
   0.00000000  0.62500000  0.45068414
   0.37500000  0.62500000  0.35205241
   0.00000000  0.50000000  0.35205241
   0.37349177  0.50139413  0.64884072
   0.99999225  0.62512199  0.64967776
   0.37500154  0.62539899  0.54932318
   0.99999189  0.50001582  0.54943191
   0.37500000  0.75000000  0.45068414
   0.00000000  0.87500000  0.45068414
   0.37500000  0.87500000  0.35205241
   0.00000000  0.75000000  0.35205241
   0.37483542  0.75018410  0.64962114
   0.00000278  0.87499485  0.64963084
   0.37499698  0.87499126  0.54939325
   0.99999987  0.75003635  0.54942929
   0.62500000  0.00000000  0.45068414
   0.75000000  0.12500000  0.45068414
   0.62500000  0.12500000  0.35205241
   0.75000000  0.00000000  0.35205241
   0.62519233  0.99979864  0.64963398
   0.75049856  0.12451046  0.64947928
   0.62505029  0.12459348  0.54928502
   0.75008835  0.99987275  0.54938910
   0.62500000  0.25000000  0.45068414
   0.75000000  0.37500000  0.45068414
   0.62500000  0.37500000  0.35205241
   0.75000000  0.25000000  0.35205241
   0.62656189  0.24864700  0.64886835
   0.75104732  0.37491507  0.65087535
   0.62563796  0.37507042  0.54963767
   0.75042784  0.24992798  0.54918673
   0.87500000  0.00000000  0.45068414
   0.50000000  0.12500000  0.45068414
   0.87500000  0.12500000  0.35205241
   0.50000000  0.00000000  0.35205241
   0.87513949  0.99986143  0.64965583
   0.49992349  0.12401289  0.65080204
   0.87513810  0.12488633  0.54938298
   0.49998757  0.99997132  0.54951316
   0.87500000  0.25000000  0.45068414
   0.50000000  0.37500000  0.45068414
   0.87500000  0.37500000  0.35205241
   0.50000000  0.25000000  0.35205241
   0.87520938  0.24978608  0.64958176
   0.50003810  0.37502959  0.64730488
   0.87503412  0.37500536  0.54948013
   0.50006518  0.24940439  0.54964769
   0.62500000  0.50000000  0.45068414
   0.75000000  0.62500000  0.45068414
   0.62500000  0.62500000  0.35205241
   0.75000000  0.50000000  0.35205241
   0.62639493  0.50160286  0.64881515
   0.75048973  0.62550281  0.64945642
   0.62503701  0.62542831  0.54918144
   0.75042020  0.50006140  0.54928389
   0.62500000  0.75000000  0.45068414
   0.75000000  0.87500000  0.45068414
   0.62500000  0.87500000  0.35205241
   0.75000000  0.75000000  0.35205241
   0.62521811  0.75021125  0.64957040
   0.75011639  0.87501740  0.64967200
   0.62500148  0.87502143  0.54938985
   0.75009912  0.75012290  0.54937673
   0.87500000  0.50000000  0.45068414
   0.50000000  0.62500000  0.45068414
   0.87500000  0.62500000  0.35205241
   0.50000000  0.50000000  0.35205241
   0.87519519  0.50019554  0.64962384
   0.50015870  0.62598229  0.65111998
   0.87513698  0.62508304  0.54937600
   0.49994409  0.50060630  0.54965684
   0.87500000  0.75000000  0.45068414
   0.50000000  0.87500000  0.45068414
   0.87500000  0.87500000  0.35205241
   0.50000000  0.75000000  0.35205241
   0.87514369  0.75014342  0.64964849
   0.50000256  0.87499480  0.64970638
   0.87504136  0.87500547  0.54942487
   0.50001013  0.74999291  0.54951517

 position of ions in cartesian coordinates  (Angst):
   2.10121550  0.00000000  7.50000000
   4.20243100  2.10121550  7.50000000
   2.10121550  2.10121550  9.60121550
   4.20243100  0.00000000  9.60121550
   2.10094890 16.80936866 11.71001586
   4.20097819  2.10085915 11.70525315
   2.09990341  2.09905639 13.79019019
   4.20014043 16.80827380 13.79010004
   2.10121550  4.20243100  7.50000000
   4.20243100  6.30364650  7.50000000
   2.10121550  6.30364650  9.60121550
   4.20243100  4.20243100  9.60121550
   2.10023978  4.20297954 11.70780016
   4.20919925  6.30299637 11.71264101
   2.09895081  6.30404803 13.78926241
   4.20015500  4.19614117 13.77749126
   6.30364650  0.00000000  7.50000000
   0.00000000  2.10121550  7.50000000
   6.30364650  2.10121550  9.60121550
   0.00000000  0.00000000  9.60121550
   6.30387650 16.80779151 11.70661754
   0.00008486  2.10053762 11.70985099
   6.29719670  2.09885239 13.76886798
   0.00012200 16.80872890 13.79152769
   6.30364650  4.20243100  7.50000000
   0.00000000  6.30364650  7.50000000
   6.30364650  6.30364650  9.60121550
   0.00000000  4.20243100  9.60121550
   6.31287406  4.20979546 11.72051982
   0.00005286  6.30363651 11.70957758
   6.31140996  6.29233836 13.84913024
   0.00023000  4.20066370 13.79007620
   2.10121550  8.40486199  7.50000000
   4.20243100 10.50607749  7.50000000
   2.10121550 10.50607749  9.60121550
   4.20243100  8.40486199  9.60121550
   2.09892994  8.40472124 11.70642257
   4.20185824 10.50782650 11.70506788
   2.09940865 10.50864345 13.79001996
   4.19945098  8.41232852 13.76797793
   2.10121550 12.60729299  7.50000000
   4.20243100 14.70850849  7.50000000
   2.10121550 14.70850849  9.60121550
   4.20243100 12.60729299  9.60121550
   2.10078182 12.60765318 11.70998557
   4.20168714 14.70851988 11.70983432
   2.10015447 14.70852972 13.79131009
   4.20018515 12.60878248 13.79009510
   6.30364650  8.40486199  7.50000000
   0.00000000 10.50607749  7.50000000
   6.30364650 10.50607749  9.60121550
   0.00000000  8.40486199  9.60121550
   6.31042940  8.39635446 11.71950921
  16.80962499 10.50682549 11.70976491
   6.29702434 10.50880097 13.77755526
  16.80949872  8.40680566 13.79025480
   6.30364650 12.60729299  7.50000000
   0.00000000 14.70850849  7.50000000
   6.30364650 14.70850849  9.60121550
   0.00000000 12.60729299  9.60121550
   6.30415766 12.60859224 11.70774276
   0.00000042 14.70850300 11.71006124
   6.30182992 14.70856305 13.79011725
  16.80962214 12.60835036 13.79128796
  10.50607749  0.00000000  7.50000000
  12.60729299  2.10121550  7.50000000
  10.50607749  2.10121550  9.60121550
  12.60729299  0.00000000  9.60121550
  10.50554057 16.80876952 11.70763557
  12.60767124  2.09960964 11.70496733
  10.51219768  2.09869886 13.77685649
  12.60940103 16.80851900 13.79019990
  10.50607749  4.20243100  7.50000000
  12.60729299  6.30364650  7.50000000
  10.50607749  6.30364650  9.60121550
  12.60729299  4.20243100  9.60121550
  10.49845983  4.21132040 11.72062478
  12.60051339  6.30396226 11.71275336
  10.49968763  6.31558420 13.85269689
  12.61025142  4.19485498 13.76791432
  14.70850849  0.00000000  7.50000000
   8.40486199  2.10121550  7.50000000
  14.70850849  2.10121550  9.60121550
   8.40486199  0.00000000  9.60121550
  14.70884620 16.80943312 11.71000938
   8.40548381  2.10823721 11.71307467
  14.71022170  2.09861651 13.79001610
   8.40468140 16.80792059 13.78915281
  14.70850849  4.20243100  7.50000000
   8.40486199  6.30364650  7.50000000
  14.70850849  6.30364650  9.60121550
   8.40486199  4.20243100  9.60121550
  14.71064127  4.20260754 11.70640610
   8.40561748  6.30207556 11.73201212
  14.71104669  6.30346575 13.78888123
   8.41725093  4.20867844 13.85463795
  10.50607749  8.40486199  7.50000000
  12.60729299 10.50607749  7.50000000
  10.50607749 10.50607749  9.60121550
  12.60729299  8.40486199  9.60121550
  10.49841556  8.39715148 11.71967805
  12.60939505 10.50666408 11.70474597
  10.51498561 10.50964251 13.76665370
  12.61039963  8.41118520 13.77682725
  10.50607749 12.60729299  7.50000000
  12.60729299 14.70850849  7.50000000
  10.50607749 14.70850849  9.60121550
  12.60729299 12.60729299  9.60121550
  10.50603698 12.60996062 11.70624447
  12.60810668 14.70872137 11.70979051
  10.50796671 14.70908004 13.79005134
  12.61018514 12.60937621 13.78991127
  14.70850849  8.40486199  7.50000000
   8.40486199 10.50607749  7.50000000
  14.70850849 10.50607749  9.60121550
   8.40486199  8.40486199  9.60121550
  14.70971313  8.40429097 11.70755046
   8.40448760 10.49993386 11.71234433
  14.71002430 10.50832301 13.79014330
   8.39354082  8.39474258 13.84438959
  14.70850849 12.60729299  7.50000000
   8.40486199 14.70850849  7.50000000
  14.70850849 14.70850849  9.60121550
   8.40486199 12.60729299  9.60121550
  14.70891160 12.60773394 11.70997608
   8.40482370 14.70867115 11.70966451
  14.70967648 14.70878215 13.79130445
   8.40526274 12.61020342 13.78978801
   2.10121550  0.00000000  9.60121550
   4.20243100  2.10121550  9.60121550
   2.10121550  2.10121550  7.50000000
   4.20243100  0.00000000  7.50000000
   2.09905520 16.80740719 13.84002490
   4.19462292  2.09311205 13.83654066
   2.09899241  2.09956623 11.70394445
   4.20085647 16.80769454 11.70400283
   2.10121550  4.20243100  9.60121550
   4.20243100  6.30364650  9.60121550
   2.10121550  6.30364650  7.50000000
   4.20243100  4.20243100  7.50000000
   2.09819423  4.19960007 13.83935276
   4.18619978  6.30612079 13.86697820
   2.10093110  6.30408547 11.70617604
   4.19588839  4.20178364 11.70229288
   6.30364650  0.00000000  9.60121550
   0.00000000  2.10121550  9.60121550
   6.30364650  2.10121550  7.50000000
   0.00000000  0.00000000  7.50000000
   6.30000964 16.80626980 13.83892378
   0.00024703  2.09945146 13.84049592
   6.30254333  2.09433190 11.69992018
   0.00004999 16.80902296 11.70556537
   6.30364650  4.20243100  9.60121550
   0.00000000  6.30364650  9.60121550
   6.30364650  6.30364650  7.50000000
   0.00000000  4.20243100  7.50000000
   6.28111354  4.17779053 13.82424164
   0.00006771  6.30373395 13.84109010
   6.29327980  6.30277686 11.70929604
   0.00028108  4.20232989 11.70423487
   2.10121550  8.40486199  9.60121550
   4.20243100 10.50607749  9.60121550
   2.10121550 10.50607749  7.50000000
   4.20243100  8.40486199  7.50000000
   2.09796614  8.40863699 13.83874192
   4.19439107 10.51390738 13.83619164
   2.09909688 10.50760583 11.70375032
   4.19537285  8.40610535 11.69948341
   2.10121550 12.60729299  9.60121550
   4.20243100 14.70850849  9.60121550
   2.10121550 14.70850849  7.50000000
   4.20243100 12.60729299  7.50000000
   2.09888154 12.60954312 13.83987154
   4.20058375 14.70841100 13.84035636
   2.10055650 14.70854851 11.70476015
   4.20101508 12.60930178 11.70385889
   6.30364650  8.40486199  9.60121550
   0.00000000 10.50607749  9.60121550
   6.30364650 10.50607749  7.50000000
   0.00000000  8.40486199  7.50000000
   6.27829363  8.42829690 13.82267328
  16.80959371 10.50812805 13.84050529
   6.30367241 10.51278432 11.70258674
  16.80958764  8.40512786 11.70490329
   6.30364650 12.60729299  9.60121550
   0.00000000 14.70850849  9.60121550
   6.30364650 14.70850849  7.50000000
   0.00000000 12.60729299  7.50000000
   6.30088002 12.61038764 13.83929922
   0.00004676 14.70842199 13.83950586
   6.30359569 14.70836165 11.70407967
  16.80972181 12.60790398 11.70484738
  10.50607749  0.00000000  9.60121550
  12.60729299  2.10121550  9.60121550
  10.50607749  2.10121550  7.50000000
  12.60729299  0.00000000  7.50000000
  10.50931052 16.80633910 13.83957268
  12.61567373  2.09298647 13.83627701
  10.50692279  2.09438193 11.70177390
  12.60877818 16.80758488 11.70399108
  10.50607749  4.20243100  9.60121550
  12.60729299  6.30364650  9.60121550
  10.50607749  6.30364650  7.50000000
  12.60729299  4.20243100  7.50000000
  10.53233248  4.17968751 13.82326190
  12.62489807  6.30221883 13.86601838
  10.51680136  6.30483030 11.70928663
  12.61448479  4.20122038 11.69967997
  14.70850849  0.00000000  9.60121550
   8.40486199  2.10121550  9.60121550
  14.70850849  2.10121550  7.50000000
   8.40486199  0.00000000  7.50000000
  14.71085329 16.80739463 13.84003807
   8.40357592  2.08462248 13.86445656
  14.71082987  2.09930480 11.70386073
   8.40465305 16.80924190 11.70663410
  14.70850849  4.20243100  9.60121550
   8.40486199  6.30364650  9.60121550
  14.70850849  6.30364650  7.50000000
   8.40486199  4.20243100  7.50000000
  14.71202815  4.19883507 13.83846008
   8.40550252  6.30414386 13.78995423
  14.70908209  6.30373663 11.70593041
   8.40595758  4.19241900 11.70950006
  10.50607749  8.40486199  9.60121550
  12.60729299 10.50607749  9.60121550
  10.50607749 10.50607749  7.50000000
  12.60729299  8.40486199  7.50000000
  10.52952594  8.43180560 13.82212855
  12.61552517 10.51452955 13.83579006
  10.50669968 10.51327729 11.69956724
  12.61435651  8.40589414 11.70174972
  10.50607749 12.60729299  9.60121550
  12.60729299 14.70850849  9.60121550
  10.50607749 14.70850849  7.50000000
  12.60729299 12.60729299  7.50000000
  10.50974392 12.61084400 13.83821819
  12.60924953 14.70880090 13.84038273
  10.50610239 14.70886871 11.70400708
  12.60895909 12.60935887 11.70372770
  14.70850849  8.40486199  9.60121550
   8.40486199 10.50607749  9.60121550
  14.70850849 10.50607749  7.50000000
   8.40486199  8.40486199  7.50000000
  14.71178956  8.40814896 13.83935659
   8.40752975 10.52258943 13.87122992
  14.71081112 10.50747341 11.70371210
   8.40392223  8.41505378 11.70969504
  14.70850849 12.60729299  9.60121550
   8.40486199 14.70850849  9.60121550
  14.70850849 14.70850849  7.50000000
   8.40486199 12.60729299  7.50000000
  14.71092392 12.60970383 13.83988181
   8.40490503 14.70842103 13.84111510
  14.70920367 14.70860041 11.70475326
   8.40503224 12.60717385 11.70667694



--------------------------------------------------------------------------------------------------------


--------------------------------------- Iteration      FINAL  ---------------------------------------


--------------------OUTCAR has been truncated-------------------------


--------------------OUTCAR has been truncated-------------------------


--------------------OUTCAR has been truncated-------------------------


--------------------OUTCAR has been truncated-------------------------


--------------------OUTCAR has been truncated-------------------------


--------------------OUTCAR has been truncated-------------------------


--------------------OUTCAR has been truncated-------------------------


--------------------OUTCAR has been truncated-------------------------


--------------------OUTCAR has been truncated-------------------------


--------------------OUTCAR has been truncated-------------------------


  DFT-D2 method for vdW energy calculation
  -------------------------------------------------------------------

  Parameters of vdW forcefield:
         C6(Jnm^6/mol)     R0(A)
   -----------------------------
   Mg       0.630          1.243
   O        0.700          1.342

  vdW correction parametrized for the method c      

  IVDW =   1
  VDW_RADIUS =    50.000 A
  VDW_S6 =     1.050
  VDW_SR =     1.000
  VDW_D =    20.000
  LVDW_EWALD = F

  Number of pair interactions contributing to vdW energy: 2891126
  Edisp (eV):  -20.70802
    FORVDW:  cpu time      0.7301: real time      0.7303

 VOLUME and BASIS-vectors are now :
 -----------------------------------------------------------------------------
  energy-cutoff  :      520.00
  volume of cell :     6019.70
      direct lattice vectors                 reciprocal lattice vectors
    16.809723990  0.000000000  0.000000000     0.059489377  0.000000000  0.000000000
     0.000000000 16.809723990  0.000000000     0.000000000  0.059489377  0.000000000
     0.000000000  0.000000000 21.303646496     0.000000000  0.000000000  0.046940321

  length of vectors
    16.809723990 16.809723990 21.303646496     0.059489377  0.059489377  0.046940321


 FORCES acting on ions:
    Electron-Ion                     Ewald-Force                    Non-Local-Force
 -----------------------------------------------------------------------------------------------
   -.235E+00 -.237E+00 0.209E+04   0.224E+00 0.225E+00 -.209E+04   0.820E-02 0.809E-02 -.642E+01
   -.649E+00 -.671E+00 0.209E+04   0.638E+00 0.661E+00 -.208E+04   0.779E-02 0.718E-02 -.640E+01
   -.498E+00 -.660E+00 0.694E+03   0.444E+00 0.624E+00 -.695E+03   0.357E-01 0.249E-01 0.336E+00
   -.563E+00 -.487E+00 0.694E+03   0.523E+00 0.434E+00 -.695E+03   0.271E-01 0.352E-01 0.336E+00
   -.295E+00 -.311E+00 -.697E+03   0.271E+00 0.287E+00 0.697E+03   0.106E-01 0.117E-01 -.253E+00
   -.159E+01 -.176E+01 -.694E+03   0.143E+01 0.163E+01 0.694E+03   0.103E+00 0.762E-01 -.171E+00
   -.333E-01 -.121E+01 -.208E+04   0.496E-01 0.121E+01 0.207E+04   -.357E-01 -.466E-02 0.541E+01
   -.117E+01 0.114E-01 -.208E+04   0.119E+01 0.126E-01 0.207E+04   -.191E-01 -.416E-01 0.541E+01
   -.551E+00 -.362E+00 0.209E+04   0.544E+00 0.354E+00 -.208E+04   0.519E-02 0.550E-02 -.641E+01
   -.105E+01 0.375E-01 0.209E+04   0.104E+01 -.373E-01 -.208E+04   0.487E-02 0.104E-03 -.641E+01
   -.140E+01 0.156E+00 0.693E+03   0.142E+01 -.157E+00 -.693E+03   -.109E-01 0.106E-03 0.378E+00
   -.270E+01 -.138E+01 0.693E+03   0.270E+01 0.140E+01 -.693E+03   0.538E-02 -.143E-01 0.356E+00
   -.618E+00 -.128E+01 -.697E+03   0.589E+00 0.127E+01 0.697E+03   -.468E-02 -.749E-02 -.234E+00
   -.220E+01 0.116E+00 -.704E+03   0.233E+01 -.149E+00 0.704E+03   -.204E+00 0.308E-01 0.150E+00
   -.212E+00 0.276E-01 -.208E+04   0.290E+00 -.276E-02 0.207E+04   -.104E+00 -.154E-01 0.530E+01
   0.681E+00 -.399E+01 -.207E+04   -.989E+00 0.379E+01 0.206E+04   0.101E+00 0.180E+00 0.538E+01
   -.371E+00 -.528E+00 0.209E+04   0.363E+00 0.519E+00 -.208E+04   0.528E-02 0.626E-02 -.641E+01
   -.334E-01 -.315E+00 0.209E+04   0.339E-01 0.300E+00 -.209E+04   -.303E-03 0.105E-01 -.642E+01
   -.139E+01 -.277E+01 0.693E+03   0.141E+01 0.277E+01 -.694E+03   -.127E-01 0.578E-02 0.330E+00
[...]
      2.10078     12.60765     11.70999        -0.009878      0.009587      0.028870
      4.20169     14.70852     11.70983        -0.007780     -0.001107      0.030805
      2.10015     14.70853     13.79131        -0.004656     -0.000740      0.074185
      4.20019     12.60878     13.79010        -0.001154      0.017289      0.079858
      6.30365      8.40486      7.50000        -0.001381      0.001082      0.403745
      0.00000     10.50608      7.50000        -0.000059      0.003633      0.408472
      6.30365     10.50608      9.60122         0.006738     -0.003505      0.021473
      0.00000      8.40486      9.60122        -0.002334      0.007880      0.022064
      6.31043      8.39635     11.71951        -0.065469      0.073418     -0.127614
     16.80962     10.50683     11.70976         0.000312      0.008318      0.031746
      6.29702     10.50880     13.77756         0.005761      0.176551      0.172371
     16.80950      8.40681     13.79025         0.005873     -0.000423      0.088791
      6.30365     12.60729      7.50000        -0.002196      0.001891      0.405254
      0.00000     14.70851      7.50000         0.000008     -0.000538      0.409218
      6.30365     14.70851      9.60122        -0.007656     -0.002613      0.020210
      0.00000     12.60729      9.60122         0.000026      0.002908      0.032157
      6.30416     12.60859     11.70774        -0.010278      0.026753      0.047751
      0.00000     14.70850     11.71006         0.000262      0.000457      0.031707
      6.30183     14.70856     13.79012         0.001146     -0.001471      0.087368
     16.80962     12.60835     13.79129         0.000443      0.004930      0.076545
     10.50608      0.00000      7.50000         0.002130     -0.002055      0.404990
     12.60729      2.10122      7.50000         0.002370     -0.002204      0.402153
     10.50608      2.10122      9.60122        -0.006599      0.005874      0.018359
     12.60729      0.00000      9.60122         0.008775     -0.014932      0.023194
     10.50554     16.80877     11.70764         0.013503     -0.033761      0.042439
     12.60767      2.09961     11.70497         0.040940     -0.038684      0.030413
     10.51220      2.09870     13.77686         0.023280     -0.187009      0.161445
     12.60940     16.80852     13.79020         0.007280     -0.022431      0.078865
     10.50608      4.20243      7.50000         0.001259     -0.000798      0.404292
     12.60729      6.30365      7.50000         0.001592     -0.000183      0.406161
     10.50608      6.30365      9.60122         0.000278      0.001313      0.010212
     12.60729      4.20243      9.60122        -0.005004      0.005882      0.014601
     10.49846      4.21132     11.72062         0.069611     -0.070262     -0.140693
     12.60051      6.30396     11.71275         0.089508      0.005530      0.013473
     10.49969      6.31558     13.85270         0.432767     -0.059371     -0.520689
     12.61025      4.19485     13.76791         0.175417      0.011143      0.235254
     14.70851      0.00000      7.50000         0.002203     -0.002789      0.408350
      8.40486      2.10122      7.50000         0.000051     -0.001193      0.405840
     14.70851      2.10122      9.60122         0.013750     -0.010540      0.022825
      8.40486      0.00000      9.60122         0.000848      0.008252      0.030163
     14.70885     16.80943     11.71001         0.011810     -0.011113      0.029438
      8.40548      2.10824     11.71307         0.001029     -0.085883      0.006422
     14.71022      2.09862     13.79002         0.020495      0.000939      0.079501
      8.40468     16.80792     13.78915        -0.005245     -0.046667      0.137800
     14.70851      4.20243      7.50000         0.001605     -0.001610      0.404437
      8.40486      6.30365      7.50000         0.000065     -0.000385      0.400967
     14.70851      6.30365      9.60122        -0.008396      0.001623      0.028097
      8.40486      4.20243      9.60122         0.002241     -0.000117      0.010760
     14.71064      4.20261     11.70641         0.032173     -0.012720      0.050006
      8.40562      6.30208     11.73201        -0.002389      0.007018     -0.376677
     14.71105      6.30347     13.78888         0.036639     -0.004625      0.139222
      8.41725      4.20868     13.85464        -0.074893     -0.418153     -0.533933
     10.50608      8.40486      7.50000         0.001357      0.001068      0.403856
     12.60729     10.50608      7.50000         0.002640      0.002852      0.402268
     10.50608     10.50608      9.60122        -0.005629     -0.003233      0.015649
     12.60729      8.40486      9.60122        -0.003425     -0.006385      0.019448
     10.49842      8.39715     11.71968         0.064889      0.074459     -0.130034
     12.60940     10.50666     11.70475         0.033298      0.039076      0.033036
     10.51499     10.50964     13.76665        -0.032509      0.163604      0.257138
     12.61040      8.41119     13.77683         0.176595      0.016926      0.163633
     10.50608     12.60729      7.50000         0.002134      0.001978      0.404744
     12.60729     14.70851      7.50000         0.003263     -0.000479      0.408517
     10.50608     14.70851      9.60122         0.007518      0.002542      0.019469
     12.60729     12.60729      9.60122         0.010443      0.013723      0.023764
     10.50604     12.60996     11.70624         0.009939      0.025036      0.054710
     12.60811     14.70872     11.70979         0.007779     -0.000703      0.030864
     10.50797     14.70908     13.79005        -0.000663     -0.011353      0.087051
     12.61019     12.60938     13.78991        -0.006263      0.015701      0.081952
     14.70851      8.40486      7.50000         0.001603      0.001958      0.405119
      8.40486     10.50608      7.50000        -0.000042      0.002090      0.406091
     14.70851     10.50608      9.60122         0.015054      0.008790      0.022099
      8.40486      8.40486      9.60122        -0.001493     -0.001387      0.015120
     14.70971      8.40429     11.70755         0.031217      0.014734      0.044392
      8.40449     10.49993     11.71234        -0.002244      0.084492      0.031864
     14.71002     10.50832     13.79014         0.018837      0.005558      0.076714
      8.39354      8.39474     13.84439         0.070656      0.477810     -0.457003
     14.70851     12.60729      7.50000         0.002250      0.002465      0.408793
      8.40486     14.70851      7.50000        -0.000025     -0.000543      0.403688
     14.70851     14.70851      9.60122         0.003006     -0.000385      0.031045
      8.40486     12.60729      9.60122        -0.001264     -0.008202      0.030924
     14.70891     12.60773     11.70998         0.010493      0.009799      0.028525
      8.40482     14.70867     11.70966         0.000050     -0.004098      0.045382
     14.70968     14.70878     13.79130         0.004946     -0.000615      0.074361
      8.40526     12.61020     13.78979         0.006773      0.015934      0.143217
      2.10122      0.00000      9.60122         0.000842      0.002767      0.024220
      4.20243      2.10122      9.60122         0.000520      0.002648      0.031207
      2.10122      2.10122      7.50000         0.003680      0.003667     -0.496284
      4.20243      0.00000      7.50000         0.003712      0.003898     -0.496062
      2.09906     16.80741     13.84002         0.008198      0.008873     -0.049012
      4.19462      2.09311     13.83654         0.061447      0.067071     -0.077477
      2.09899      2.09957     11.70394         0.017490      0.012604     -0.041159
      4.20086     16.80769     11.70400         0.012484      0.019193     -0.042523
      2.10122      4.20243      9.60122        -0.002181      0.003503      0.026618
      4.20243      6.30365      9.60122         0.007633     -0.001166      0.042947
      2.10122      6.30365      7.50000         0.001158     -0.000120     -0.494977
      4.20243      4.20243      7.50000         0.002096     -0.000021     -0.492610
      2.09819      4.19960     13.83935         0.026946      0.003758     -0.076774
      4.18620      6.30612     13.86698         0.297522     -0.039219     -0.160242
      2.10093      6.30409     11.70618         0.030006     -0.003556     -0.038053
      4.19589      4.20178     11.70229         0.089564      0.018751      0.008768
      6.30365      0.00000      9.60122         0.004615     -0.004343      0.023366
      0.00000      2.10122      9.60122        -0.000056      0.003372      0.023925
      6.30365      2.10122      7.50000        -0.000034      0.001853     -0.494794
      0.00000      0.00000      7.50000        -0.000046      0.002468     -0.503218
      6.30001     16.80627     13.83892         0.008777      0.029826     -0.088199
      0.00025      2.09945     13.84050         0.000690      0.000114     -0.055374
      6.30254      2.09433     11.69992         0.026407      0.089756      0.014718
      0.00005     16.80902     11.70557         0.000166      0.003847     -0.037208
      6.30365      4.20243      9.60122         0.014564      0.010999      0.080503
      0.00000      6.30365      9.60122         0.000433      0.001381      0.036693
      6.30365      6.30365      7.50000         0.002110     -0.000006     -0.495405
      0.00000      4.20243      7.50000        -0.000131      0.002744     -0.496070
      6.28111      4.17779     13.82424         0.371089      0.366098      0.245163
      0.00007      6.30373     13.84109        -0.000661     -0.001033     -0.067992
      6.29328      6.30278     11.70930         0.139511     -0.004377      0.159891
      0.00028      4.20233     11.70423         0.000683      0.006498     -0.042333
      2.10122      8.40486      9.60122        -0.007762     -0.003383      0.021495
      4.20243     10.50608      9.60122         0.004225     -0.000769      0.029933
      2.10122     10.50608      7.50000         0.003840     -0.003660     -0.496269
      4.20243      8.40486      7.50000         0.001951     -0.000215     -0.494822
      2.09797      8.40864     13.83874         0.021708     -0.006748     -0.090438
      4.19439     10.51391     13.83619         0.061677     -0.056983     -0.080543
      2.09910     10.50761     11.70375         0.016773     -0.011740     -0.044472
      4.19537      8.40611     11.69948         0.088124     -0.024940      0.008027
      2.10122     12.60729      9.60122         0.001666     -0.001964      0.023909
      4.20243     14.70851      9.60122         0.004702      0.001480      0.023938
      2.10122     14.70851      7.50000         0.002326      0.000165     -0.499270
      4.20243     12.60729      7.50000         0.003524     -0.003549     -0.494336
      2.09888     12.60954     13.83987         0.006411     -0.006535     -0.048799
      4.20058     14.70841     13.84036        -0.000730      0.001721     -0.055927
      2.10056     14.70855     11.70476         0.002636      0.001715     -0.038894
      4.20102     12.60930     11.70386         0.011595     -0.016433     -0.043834
      6.30365      8.40486      9.60122         0.012466     -0.012950      0.078059
      0.00000     10.50608      9.60122         0.000289     -0.006343      0.023099
      6.30365     10.50608      7.50000         0.000023     -0.002275     -0.494798
      0.00000      8.40486      7.50000         0.000113     -0.002994     -0.500377
      6.27829      8.42830     13.82267         0.373486     -0.375909      0.237593
     16.80959     10.50813     13.84051        -0.001488      0.000512     -0.054835
      6.30367     10.51278     11.70259         0.014648     -0.087209      0.000372
     16.80959      8.40513     11.70490        -0.001534     -0.008189     -0.042227
      6.30365     12.60729      9.60122         0.004570      0.002118      0.025225
      0.00000     14.70851      9.60122         0.000012      0.001808      0.025202
      6.30365     14.70851      7.50000         0.002783      0.000291     -0.496294
      0.00000     12.60729      7.50000         0.000017     -0.002177     -0.499249
      6.30088     12.61039     13.83930        -0.001582     -0.020474     -0.079087
      0.00005     14.70842     13.83951         0.000033      0.001527     -0.043232
      6.30360     14.70836     11.70408         0.006221      0.001739     -0.043340
     16.80972     12.60790     11.70485        -0.000292     -0.003245     -0.037710
     10.50608      0.00000      9.60122        -0.004998     -0.001379      0.025447
     12.60729      2.10122      9.60122        -0.002678     -0.000586      0.030366
     10.50608      2.10122      7.50000         0.000064      0.002167     -0.494774
     12.60729      0.00000      7.50000        -0.003534      0.003867     -0.496260
     10.50931     16.80634     13.83957        -0.007081      0.034605     -0.077815
     12.61567      2.09299     13.83628        -0.069742      0.060359     -0.079272
     10.50692      2.09438     11.70177        -0.021789      0.090638      0.014621
     12.60878     16.80758     11.70399        -0.012924      0.019479     -0.040904
     10.50608      4.20243      9.60122        -0.012108      0.013223      0.080633
     12.60729      6.30365      9.60122        -0.007093      0.001247      0.043062
     10.50608      6.30365      7.50000        -0.002116     -0.000067     -0.495565
     12.60729      4.20243      7.50000        -0.001693     -0.000126     -0.492647
     10.53233      4.17969     13.82326        -0.386913      0.361264      0.256941
     12.62490      6.30222     13.86602        -0.310887      0.030085     -0.149091
     10.51680      6.30483     11.70929        -0.137295     -0.005165      0.162803
     12.61448      4.20122     11.69968        -0.091652      0.023662      0.014471
     14.70851      0.00000      9.60122        -0.001127      0.002416      0.024089
      8.40486      2.10122      9.60122         0.000967      0.006220      0.044784
     14.70851      2.10122      7.50000        -0.003809      0.003879     -0.496034
      8.40486      0.00000      7.50000        -0.000163      0.001228     -0.498944
     14.71085     16.80739     13.84004        -0.008259      0.008625     -0.049336
      8.40358      2.08462     13.86446         0.031034      0.307246     -0.130932
     14.71083      2.09930     11.70386        -0.018431      0.012497     -0.043171
      8.40465     16.80924     11.70663         0.001920      0.034839     -0.032911
     14.70851      4.20243      9.60122         0.006233      0.002714      0.023212
      8.40486      6.30365      9.60122         0.000699      0.000185      0.137444
     14.70851      6.30365      7.50000        -0.001100     -0.000540     -0.494979
      8.40486      4.20243      7.50000        -0.000016      0.002065     -0.495591
     14.71203      4.19884     13.83846        -0.023518      0.005859     -0.088466
      8.40550      6.30414     13.78995         0.003490     -0.016513      0.827559
     14.70908      6.30374     11.70593        -0.031907     -0.001126     -0.036198
      8.40596      4.19242     11.70950         0.001534      0.133752      0.166890
     10.50608      8.40486      9.60122        -0.013858     -0.011686      0.078041
     12.60729     10.50608      9.60122        -0.000102     -0.003451      0.028766
     10.50608     10.50608      7.50000         0.000013     -0.001825     -0.494852
     12.60729      8.40486      7.50000        -0.002227     -0.000149     -0.494815
     10.52953      8.43181     13.82213        -0.355135     -0.404011      0.243072
     12.61553     10.51453     13.83579        -0.052515     -0.067347     -0.081523
     10.50670     10.51328     11.69957        -0.017071     -0.090280      0.004892
     12.61436      8.40589     11.70175        -0.086910     -0.023032      0.008747
     10.50608     12.60729      9.60122        -0.004116      0.006654      0.021384
     12.60729     14.70851      9.60122        -0.004681      0.001293      0.023672
     10.50608     14.70851      7.50000        -0.002765      0.000067     -0.496295
     12.60729     12.60729      7.50000        -0.003753     -0.003631     -0.494077
     10.50974     12.61084     13.83822         0.001448     -0.014674     -0.092084
     12.60925     14.70880     13.84038         0.001353      0.004234     -0.056441
     10.50610     14.70887     11.70401        -0.006356      0.004317     -0.043926
     12.60896     12.60936     11.70373        -0.010611     -0.016401     -0.045923
     14.70851      8.40486      9.60122         0.004573     -0.003623      0.024037
      8.40486     10.50608      9.60122        -0.001570     -0.009098      0.040939
     14.70851     10.50608      7.50000        -0.003772     -0.003461     -0.496490
      8.40486      8.40486      7.50000        -0.000046     -0.002300     -0.499436
     14.71179      8.40815     13.83936        -0.028094     -0.006235     -0.078678
      8.40753     10.52259     13.87123        -0.039165     -0.297024     -0.198491
     14.71081     10.50747     11.70371        -0.017007     -0.012218     -0.042503
      8.40392      8.41505     11.70970         0.001969     -0.145962      0.154310
     14.70851     12.60729      9.60122        -0.001191     -0.002225      0.023741
      8.40486     14.70851      9.60122        -0.000025      0.001215      0.036882
     14.70851     14.70851      7.50000        -0.002360      0.000108     -0.499276
      8.40486     12.60729      7.50000         0.000222     -0.001017     -0.495005
     14.71092     12.60970     13.83988        -0.006257     -0.007058     -0.048938
      8.40491     14.70842     13.84112        -0.000142      0.008153     -0.068021
     14.70920     14.70860     11.70475        -0.002453      0.002303     -0.038871
      8.40503     12.60717     11.70668        -0.000926     -0.023532     -0.043215
 -----------------------------------------------------------------------------------
    total drift:                                0.001076     -0.001903     -0.066954


--------------------------------------------------------------------------------------------------------



  FREE ENERGIE OF THE ION-ELECTRON SYSTEM (eV)
  ---------------------------------------------------
  free  energy   TOTEN  =     -1754.76939024 eV

  energy  without entropy=    -1754.76939024  energy(sigma->0) =    -1754.76939024



--------------------------------------------------------------------------------------------------------


    POTLOK:  cpu time      1.0125: real time      1.0129


--------------------------------------------------------------------------------------------------------


     LOOP+:  cpu time   9932.4033: real time   9936.2363
    4ORBIT:  cpu time      0.0000: real time      0.0000

 total amount of memory used by VASP MPI-rank0   386585. kBytes
=======================================================================

   base      :      30000. kBytes
   nonlr-proj:      14632. kBytes
   fftplans  :      13968. kBytes
   grid      :      17470. kBytes
   one-center:        129. kBytes
   HF        :         67. kBytes
   wavefun   :       5970. kBytes
   fock_wrk  :     304349. kBytes

  
  
 General timing and accounting informations for this job:
 ========================================================
  
                  Total CPU time used (sec):     9991.825
                            User time (sec):     9965.293
                          System time (sec):       26.532
                         Elapsed time (sec):    10013.344
  
                   Maximum memory used (kb):      896144.
                   Average memory used (kb):          N/A
  
                          Minor page faults:      1838201
                          Major page faults:            0
                 Voluntary context switches:        46330
