 vasp.6.3.0 20Jan22 (build Apr  1 2022 16:44:48) gamma-only                      
 executed on        HPECrayEX_GCC date 2023.01.23  23:06:18
 running  512 mpi-ranks, with    1 threads/rank
 distrk:  each k-point on  512 cores,    1 groups
 distr:  one band on NCORE=   8 cores,   64 groups


--------------------------------------------------------------------------------------------------------


 INCAR:
   SYSTEM = MgO-rocksalt
   ISMEAR = 0
   SIGMA = 0.05
   EDIFF = 1E-8
   ALGO = ALL
   ISTART = 0
   IBRION = 5
   POTIM = 0.01
   NFREE = 2
   ISYM = 0
   DIPOL = 0.5 0.5 0.5
   IDIPOL = 4
   LDIPOL = .TRUE.
   GGA = PE
   IVDW = 1
   VDW_C6 = 1.23 0.70
   VDW_R0 = 1.397 1.342
   ENCUT = 600
   PREC = Accurate
   LASPH = .TRUE.
   LREAL = .FALSE.
   ISPIN = 2
   MAGMOM = 1.0 0.0
   NELM = 200
   NELMIN = 8
   NCORE = 8
   KPAR = 1
   LWAVE = .FALSE.
   LCHARG = .FALSE.

 POTCAR:    PAW_PBE N 08Apr2002                   
 POTCAR:    PAW_PBE O 08Apr2002                   
 POTCAR:    PAW_PBE N 08Apr2002                   
   SHA256 =  e053789ff3a61a86a1b75d8a110fcc91f86041011e7b0817c7c99e4e8a6349d7 N/POTCAR              
   COPYR  = (c) Copyright 08Apr2002 Georg Kresse                                                    
   COPYR  = This file is part of the software VASP. Any use, copying, and all other rights are regul
   COPYR  = If you do not have a valid VASP license, you may not use, copy or distribute this file. 
   VRHFIN =N: s2p3                                                                                  
   LEXCH  = PE                                                                                      
   EATOM  =   264.5486 eV,   19.4438 Ry                                                             
                                                                                                    
   TITEL  = PAW_PBE N 08Apr2002                                                                     
   LULTRA =        F    use ultrasoft PP ?                                                          
   IUNSCR =        1    unscreen: 0-lin 1-nonlin 2-no                                               
   RPACOR =    1.200    partial core radius                                                         
   POMASS =   14.001; ZVAL   =    5.000    mass and valenz                                          
   RCORE  =    1.500    outmost cutoff radius                                                       
   RWIGS  =    1.400; RWIGS  =    0.741    wigner-seitz radius (au A)                               
   ENMAX  =  400.000; ENMIN  =  300.000 eV                                                          
   ICORE  =        2    local potential                                                             
   LCOR   =        T    correct aug charges                                                         
   LPAW   =        T    paw PP                                                                      
   EAUG   =  627.112                                                                                
   DEXC   =    0.000                                                                                
   RMAX   =    1.529    core radius for proj-oper                                                   
   RAUG   =    1.300    factor for augmentation sphere                                              
   RDEP   =    1.514    radius for radial grids                                                     
   RDEPT  =    1.338    core radius for aug-charge                                                  
                                                                                                    
   Atomic configuration                                                                             
    4 entries                                                                                       
     n  l   j            E        occ.                                                              
     1  0  0.50      -384.7179   2.0000                                                             
     2  0  0.50       -18.5828   2.0000                                                             
     2  1  0.50        -7.0898   3.0000                                                             
     3  2  1.50        -6.8029   0.0000                                                             
   Description                                                                                      
     l       E           TYP  RCUT    TYP  RCUT                                                     
     0    -18.5828119     23  1.200                                                                 
     0    -13.5018863     23  1.200                                                                 
     1     -7.0897853     23  1.500                                                                 
     1      9.5240782     23  1.500                                                                 
     2     -6.8029130      7  1.500                                                                 
  local pseudopotential read in
  partial core-charges read in
  partial kinetic energy density read in
  atomic valenz-charges read in
  non local Contribution for L=           0  read in
    real space projection operators read in
  non local Contribution for L=           0  read in
    real space projection operators read in
  non local Contribution for L=           1  read in
    real space projection operators read in
  non local Contribution for L=           1  read in
    real space projection operators read in
    PAW grid and wavefunctions read in

   number of l-projection  operators is LMAX  =           4
   number of lm-projection operators is LMMAX =           8

 POTCAR:    PAW_PBE O 08Apr2002                   
   SHA256 =  818f92134a0a090dccd8ba1447fa70422a3b330e708bb4f08108d8ae51209ddf O/POTCAR              
   COPYR  = (c) Copyright 08Apr2002 Georg Kresse                                                    
   COPYR  = This file is part of the software VASP. Any use, copying, and all other rights are regul
   COPYR  = If you do not have a valid VASP license, you may not use, copy or distribute this file. 
   VRHFIN =O: s2p4                                                                                  
   LEXCH  = PE                                                                                      
   EATOM  =   432.3788 eV,   31.7789 Ry                                                             
                                                                                                    
   TITEL  = PAW_PBE O 08Apr2002                                                                     
   LULTRA =        F    use ultrasoft PP ?                                                          
   IUNSCR =        1    unscreen: 0-lin 1-nonlin 2-no                                               
   RPACOR =    1.200    partial core radius                                                         
   POMASS =   16.000; ZVAL   =    6.000    mass and valenz                                          
   RCORE  =    1.520    outmost cutoff radius                                                       
   RWIGS  =    1.550; RWIGS  =    0.820    wigner-seitz radius (au A)                               
   ENMAX  =  400.000; ENMIN  =  300.000 eV                                                          
   ICORE  =        2    local potential                                                             
   LCOR   =        T    correct aug charges                                                         
   LPAW   =        T    paw PP                                                                      
   EAUG   =  605.392                                                                                
   DEXC   =    0.000                                                                                
   RMAX   =    1.553    core radius for proj-oper                                                   
   RAUG   =    1.300    factor for augmentation sphere                                              
   RDEP   =    1.550    radius for radial grids                                                     
   RDEPT  =    1.329    core radius for aug-charge                                                  
                                                                                                    
   Atomic configuration                                                                             
    4 entries                                                                                       
     n  l   j            E        occ.                                                              
     1  0  0.50      -514.6923   2.0000                                                             
     2  0  0.50       -23.9615   2.0000                                                             
     2  1  0.50        -9.0305   4.0000                                                             
     3  2  1.50        -9.5241   0.0000                                                             
   Description                                                                                      
     l       E           TYP  RCUT    TYP  RCUT                                                     
     0    -23.9615318     23  1.200                                                                 
     0     -9.5240782     23  1.200                                                                 
     1     -9.0304911     23  1.520                                                                 
     1      8.1634956     23  1.520                                                                 
     2     -9.5240782      7  1.500                                                                 
  local pseudopotential read in
  partial core-charges read in
  partial kinetic energy density read in
  kinetic energy density of atom read in
  atomic valenz-charges read in
  non local Contribution for L=           0  read in
    real space projection operators read in
  non local Contribution for L=           0  read in
    real space projection operators read in
  non local Contribution for L=           1  read in
    real space projection operators read in
  non local Contribution for L=           1  read in
    real space projection operators read in
    PAW grid and wavefunctions read in

   number of l-projection  operators is LMAX  =           4
   number of lm-projection operators is LMMAX =           8

  PAW_PBE N 08Apr2002                   :
 energy of atom  1       EATOM= -264.5486
 kinetic energy error for atom=    0.0103 (will be added to EATOM!!)
  PAW_PBE O 08Apr2002                   :
 energy of atom  2       EATOM= -432.3788
 kinetic energy error for atom=    0.0168 (will be added to EATOM!!)


 POSCAR:  N  O
  positions in direct lattice
  No initial velocities read in
 exchange correlation table for  LEXCH =        8
   RHO(1)=    0.500       N(1)  =     2000
   RHO(2)=  100.500       N(2)  =     4000



--------------------------------------------------------------------------------------------------------


 ion  position               nearest neighbor table
   1  0.500  0.500  0.472-   2 1.17
   2  0.500  0.500  0.528-   1 1.17


IMPORTANT INFORMATION: All symmetrisations will be switched off!
NOSYMM: (Re-)initialisation of all symmetry stuff for point group C_1.


----------------------------------------------------------------------------------------

                                     Primitive cell                                     

  volume of cell :    8456.4361

  direct lattice vectors                    reciprocal lattice vectors
    20.000000000  0.000000000  0.000000000     0.050000000  0.000000000  0.000000000
     0.000000000 20.000000000  0.000000000     0.000000000  0.050000000  0.000000000
     0.000000000  0.000000000 21.141090186     0.000000000  0.000000000  0.047301250

  length of vectors
    20.000000000 20.000000000 21.141090186     0.050000000  0.050000000  0.047301250

  position of ions in fractional coordinates (direct lattice)
     0.500000000  0.500000003  0.472356587
     0.500000000  0.499999997  0.527643413

  ion indices of the primitive-cell ions
   primitive index   ion index
                 1           1
                 2           2

----------------------------------------------------------------------------------------



 KPOINTS: pymatgen v2020.8.13 with grid density = 

Automatic generation of k-mesh.
 Grid dimensions read from file:
 generate k-points for:    1    1    1

 Generating k-lattice:

  Cartesian coordinates                     Fractional coordinates (reciprocal lattice)
     0.050000000  0.000000000  0.000000000     1.000000000  0.000000000  0.000000000
     0.000000000  0.050000000  0.000000000     0.000000000  1.000000000  0.000000000
     0.000000000  0.000000000  0.047301250     0.000000000  0.000000000  1.000000000

  Length of vectors
     0.050000000  0.050000000  0.047301250

  Shift w.r.t. Gamma in fractional coordinates (k-lattice)
     0.000000000  0.000000000  0.000000000

 
 Subroutine IBZKPT returns following result:
 ===========================================
 
 Found      1 irreducible k-points:
 
 Following reciprocal coordinates:
            Coordinates               Weight
  0.000000  0.000000  0.000000      1.000000
 
 Following cartesian coordinates:
            Coordinates               Weight
  0.000000  0.000000  0.000000      1.000000
 
 
 Subroutine IBZKPT_HF returns following result:
 ==============================================
 
 Found      1 k-points in 1st BZ
 the following      1 k-points will be used (e.g. in the exchange kernel)
 Following reciprocal coordinates:   # in IRBZ
  0.000000  0.000000  0.000000    1.00000000   1 t-inv F


--------------------------------------------------------------------------------------------------------




 Dimension of arrays:
   k-points           NKPTS =      1   k-points in BZ     NKDIM =      1   number of bands    NBANDS=     64
   number of dos      NEDOS =    301   number of ions     NIONS =      2
   non local maximal  LDIM  =      4   non local SUM 2l+1 LMDIM =      8
   total plane-waves  NPLWV = ******
   max r-space proj   IRMAX =      1   max aug-charges    IRDMAX=   7268
   dimension x,y,z NGX =   160 NGY =  160 NGZ =  180
   dimension x,y,z NGXF=   320 NGYF=  320 NGZF=  360
   support grid    NGXF=   320 NGYF=  320 NGZF=  360
   ions per type =               1   1
   NGX,Y,Z   is equivalent  to a cutoff of  13.30, 13.30, 14.15 a.u.
   NGXF,Y,Z  is equivalent  to a cutoff of  26.60, 26.60, 28.31 a.u.

 SYSTEM =  MgO-rocksalt                            
 POSCAR =   N  O                                   

--------------------------------------------------------------------------------------------------------


  energy-cutoff  :      600.00
  volume of cell :     8456.44
      direct lattice vectors                 reciprocal lattice vectors
    20.000000000  0.000000000  0.000000000     0.050000000  0.000000000  0.000000000
     0.000000000 20.000000000  0.000000000     0.000000000  0.050000000  0.000000000
     0.000000000  0.000000000 21.141090186     0.000000000  0.000000000  0.047301250

  length of vectors
    20.000000000 20.000000000 21.141090186     0.050000000  0.050000000  0.047301250



 k-points in units of 2pi/SCALE and weight: pymatgen v2020.8.13 with grid density = 
   0.00000000  0.00000000  0.00000000       1.000

 k-points in reciprocal lattice and weights: pymatgen v2020.8.13 with grid density = 
   0.00000000  0.00000000  0.00000000       1.000

 position of ions in fractional coordinates (direct lattice) 
   0.50000000  0.50000000  0.47235659
   0.50000000  0.50000000  0.52764341

 position of ions in cartesian coordinates  (Angst):
  10.00000001 10.00000005  9.98613321
   9.99999999  9.99999995 11.15495697



--------------------------------------------------------------------------------------------------------


--------------------------------------- Iteration      FINAL  ---------------------------------------


--------------------OUTCAR has been truncated-------------------------


--------------------OUTCAR has been truncated-------------------------


--------------------OUTCAR has been truncated-------------------------


--------------------OUTCAR has been truncated-------------------------


--------------------OUTCAR has been truncated-------------------------


--------------------OUTCAR has been truncated-------------------------


--------------------OUTCAR has been truncated-------------------------


--------------------OUTCAR has been truncated-------------------------


--------------------OUTCAR has been truncated-------------------------


--------------------OUTCAR has been truncated-------------------------


  Number of pair interactions contributing to vdW energy:     221
  Edisp (eV):   -0.00003
    FORVDW:  cpu time      0.0001: real time      0.0001

  FORCE on cell =-STRESS in cart. coord.  units (eV):
  Direction    XX          YY          ZZ          XY          YZ          ZX
  --------------------------------------------------------------------------------------
  Alpha Z     0.05816     0.05816     0.05816
  Ewald     -38.19502   -38.19502   328.09784     0.00000    -0.00003    -0.00001
  Hartree   222.81242   235.79672   373.65504     2.08472    -0.00001    -0.00000
  E(xc)     -50.83380   -50.70371   -49.47590     0.02097    -0.00000    -0.00000
  Local    -333.13597  -368.67416  -824.80222    -5.72057     0.00004     0.00001
  n-local   -25.43914   -33.60780   -38.69159    -1.31684     0.00000     0.00000
  augment     6.11949     8.29471     6.36250     0.35060     0.00000     0.00000
  Kinetic   218.54656   246.96057   205.92050     4.58046     0.00000     0.00000
  Fock        0.00000     0.00000     0.00000     0.00000     0.00000     0.00000
  vdW        -0.00000    -0.00000     0.00007     0.00000    -0.00000    -0.00000
  -------------------------------------------------------------------------------------
  Total      -0.06731    -0.07055     1.12439    -0.00065    -0.00000    -0.00000
  in kB      -0.01275    -0.01337     0.21303    -0.00012    -0.00000    -0.00000
  external pressure =        0.06 kB  Pullay stress =        0.00 kB


 VOLUME and BASIS-vectors are now :
 -----------------------------------------------------------------------------
  energy-cutoff  :      600.00
  volume of cell :     8456.44
      direct lattice vectors                 reciprocal lattice vectors
    20.000000000  0.000000000  0.000000000     0.050000000  0.000000000  0.000000000
     0.000000000 20.000000000  0.000000000     0.000000000  0.050000000  0.000000000
     0.000000000  0.000000000 21.141090186     0.000000000  0.000000000  0.047301250

  length of vectors
    20.000000000 20.000000000 21.141090186     0.050000000  0.050000000  0.047301250


 FORCES acting on ions:
    Electron-Ion                     Ewald-Force                    Non-Local-Force
 -----------------------------------------------------------------------------------------------
   -.447E-05 -.239E-04 0.276E+03   0.521E-05 0.278E-04 -.321E+03   -.716E-06 -.384E-05 0.443E+02
   0.420E-05 0.225E-04 -.260E+03   -.521E-05 -.278E-04 0.321E+03   0.994E-06 0.515E-05 -.603E+02
 -----------------------------------------------------------------------------------------------
   -.271E-06 -.135E-05 0.160E+02   -.123E-16 0.276E-17 0.000E+00   0.278E-06 0.131E-05 -.160E+02


 POSITION                                       TOTAL-FORCE (eV/Angst)
 -----------------------------------------------------------------------------------
     10.00000     10.00000      9.98613         0.000000      0.000000     -1.050577
     10.00000     10.00000     11.14496        -0.000000     -0.000000      1.050577
 -----------------------------------------------------------------------------------
    total drift:                                0.000000     -0.000000      0.000779


--------------------------------------------------------------------------------------------------------



  FREE ENERGIE OF THE ION-ELECTRON SYSTEM (eV)
  ---------------------------------------------------
  free  energy   TOTEN  =       -12.32184986 eV

  energy  without entropy=      -12.32184123  energy(sigma->0) =      -12.32184555

 d Force =-0.7995167E-03[-0.210E-01, 0.194E-01]  d Energy =-0.2773897E-03-0.522E-03
 d Force =-0.6321421E+01[-0.643E+01,-0.621E+01]  d Ewald  =-0.6320496E+01-0.925E-03


--------------------------------------------------------------------------------------------------------


    POTLOK:  cpu time      0.6131: real time      0.6131


--------------------------------------------------------------------------------------------------------


 Finite differences progress:
  Degree of freedom:   6/  6
  Displacement:        2/  2
  Total:              12/ 12

 SECOND DERIVATIVES (NOT SYMMETRIZED)
 ------------------------------------
               1X          1Y          1Z          2X          2Y          2Z 
  1X     0.001670    0.004528    0.000781   -0.001670   -0.004528   -0.000781
  1Y     0.002349    0.006568   -0.000986   -0.002349   -0.006568    0.000986
  1Z     0.001539    0.006237 -101.042989   -0.001539   -0.006237  101.042989
  2X    -0.010932   -0.003965    0.001479    0.010932    0.003965   -0.001479
  2Y    -0.001901   -0.032287    0.000544    0.001901    0.032287   -0.000544
  2Z    -0.001777   -0.011550  101.060103    0.001777    0.011550 -101.060103


 Eigenvectors and eigenvalues of the dynamical matrix
 ----------------------------------------------------


   1 f  =   57.510789 THz   361.350947 2PiTHz 1918.353443 cm-1   237.845407 meV
             X         Y         Z           dx          dy          dz
     10.000000 10.000000  9.986133    -0.000009   -0.000028    0.730256  
     10.000000 10.000000 11.154957     0.000001    0.000028   -0.683174  

   2 f  =    0.274348 THz     1.723781 2PiTHz    9.151274 cm-1     1.134613 meV
             X         Y         Z           dx          dy          dz
     10.000000 10.000000  9.986133     0.284046   -0.836570   -0.120594  
     10.000000 10.000000 11.154957     0.023711   -0.433302   -0.128892  

   3 f  =    0.155439 THz     0.976651 2PiTHz    5.184882 cm-1     0.642843 meV
             X         Y         Z           dx          dy          dz
     10.000000 10.000000  9.986133     0.841809    0.197647    0.058143  
     10.000000 10.000000 11.154957     0.468049    0.161192    0.062138  

   4 f/i=    0.002379 THz     0.014948 2PiTHz    0.079357 cm-1     0.009839 meV
             X         Y         Z           dx          dy          dz
     10.000000 10.000000  9.986133     0.023844    0.138567   -0.668546  
     10.000000 10.000000 11.154957     0.025508    0.148136   -0.714620  

   5 f/i=    0.455755 THz     2.863595 2PiTHz   15.202361 cm-1     1.884852 meV
             X         Y         Z           dx          dy          dz
     10.000000 10.000000  9.986133     0.438496    0.005187    0.015121  
     10.000000 10.000000 11.154957    -0.870901    0.220762    0.016166  

   6 f/i=    0.834083 THz     5.240699 2PiTHz   27.822018 cm-1     3.449489 meV
             X         Y         Z           dx          dy          dz
     10.000000 10.000000  9.986133    -0.133523   -0.491791    0.040254  
     10.000000 10.000000 11.154957     0.145772    0.845924    0.043084  

 Finite differences POTIM=   1.0000000000000000E-002
     LOOP+:  cpu time     30.0449: real time     31.1445
    4ORBIT:  cpu time      0.0000: real time      0.0000

 total amount of memory used by VASP MPI-rank0   105765. kBytes
=======================================================================

   base      :      30000. kBytes
   nonl-proj :       2826. kBytes
   fftplans  :      15799. kBytes
   grid      :      55439. kBytes
   one-center:          3. kBytes
   wavefun   :       1698. kBytes

  
  
 General timing and accounting informations for this job:
 ========================================================
  
                  Total CPU time used (sec):      479.886
                            User time (sec):      477.687
                          System time (sec):        2.200
                         Elapsed time (sec):      499.356
  
                   Maximum memory used (kb):      216720.
                   Average memory used (kb):          N/A
  
                          Minor page faults:        36460
                          Major page faults:            0
                 Voluntary context switches:        21802
