 **********************************************************************
                          MRCC program system
 **********************************************************************
 
                              Written by
     Mihaly Kallay, Peter R. Nagy, David Mester, Laszlo Gyevi-Nagy,
        Jozsef Csoka, P. Bernat Szabo, Zoltan Rolik, Gyula Samu,
     Jozsef Csontos, Bence Hegely, Adam Ganyecz, Istvan Ladjanszki,
       Lorant Szegedy, Bence Ladoczki, Klara Petrov, Mate Farkas,
                    Pal D. Mezei, and Reka A. Horvath
 
        Department of Physical Chemistry and Materials Science
            Budapest University of Technology and Economics
                  Budapest P.O.Box 91, H-1521 Hungary
 
                              www.mrcc.hu
 
                      Release date: March 18, 2022

 ************************ 2023-02-04 11:49:28 *************************
 Executing minp...

 Reading input from MINP...
 
 Input file:
 
calc=FNO-CCSD(T)
verbosity=3
mem=220GB
unit=angs
scfiguess=small
scfalg=locfit1
ccmaxit=400
ccsdalg=dfdirect
ccsdthreads=4
ccsdmkl=thr
ptthreads=4
lnoepsv=1e-5
naf_cor=1e-2
basis=aug-cc-pVQZ
basis_sm=def2-SVP
dfbasis_scf=def2-QZVPP-RI-JK
dfbasis_cor=aug-cc-pVQZ-RI
unit=angs
geom=xyz
10

C    29.54344629    29.54344629    16.97505516
H    29.54344670    30.44187631    17.60392580
H    29.54344662    28.64496649    17.60393442
H    30.44658454    29.54342777    16.34911135
H    28.64030918    29.54342779    16.34911130
C    42.20489259    37.98439940    16.97521401
H    41.30647292    37.98439960    17.60422237
H    42.20491139    38.88718726    16.34882774
H    42.20491137    37.08161262    16.34882693
H    43.10336281    37.98439958    17.60423123

--------------------Output has been truncated-------------------------


--------------------Output has been truncated-------------------------


--------------------Output has been truncated-------------------------


--------------------Output has been truncated-------------------------


--------------------Output has been truncated-------------------------


--------------------Output has been truncated-------------------------


--------------------Output has been truncated-------------------------


--------------------Output has been truncated-------------------------


--------------------Output has been truncated-------------------------


--------------------Output has been truncated-------------------------


 
 Reference energy [au]:                       -40.215617307041
 DF-MP2 singlet pair energy [au]:              -0.173752998979
 DF-MP2 triplet pair energy [au]:              -0.037498128924
 DF-SCS-MP2 correlation energy [au]:           -0.221002975082
 DF-SCS-MP2 energy [au]:                      -40.436620282124
 DF-SOS-MP2 correlation energy [au]:           -0.225878898672
 DF-SOS-MP2 energy [au]:                      -40.441496205713
 DF-MP2 correlation energy [au]:               -0.211251127903
 DF-MP2 energy [au]:                          -40.426868434944

 Results in FNO basis:
 
 
 Reference energy [au]:                       -40.215617307041
 DF-MP2 singlet pair energy [au]:              -0.170618316750
 DF-MP2 triplet pair energy [au]:              -0.037356827584
 DF-SCS-MP2 correlation energy [au]:           -0.217194255962
 DF-SCS-MP2 energy [au]:                      -40.432811563003
 DF-SOS-MP2 correlation energy [au]:           -0.221803811776
 DF-SOS-MP2 energy [au]:                      -40.437421118817
 DF-MP2 correlation energy [au]:               -0.207975144334
 DF-MP2 energy [au]:                          -40.423592451375

 Results in NAF basis:
 
 
 Reference energy [au]:                       -40.215617307041
 DF-MP2 singlet pair energy [au]:              -0.170600758563
 DF-MP2 triplet pair energy [au]:              -0.037363526775
 DF-SCS-MP2 correlation energy [au]:           -0.217175419200
 DF-SCS-MP2 energy [au]:                      -40.432792726242
 DF-SOS-MP2 correlation energy [au]:           -0.221780986132
 DF-SOS-MP2 energy [au]:                      -40.437398293173
 DF-MP2 correlation energy [au]:               -0.207964285338
 DF-MP2 energy [au]:                          -40.423581592379

 ************************ 2023-02-04 11:50:01 *************************
 Executing ccsd...

 Allocation of 220.0 Gbytes of memory...

 Direct DF-CCSD(T) calculation
 
 Convergence criterion:  1.0E-06
 
 Number of occupied/virtual/auxiliary orbitals:     4   101   320
    163.36 MB is the minimal memory requirement for (T)
     39.40 MB is the minimal memory requirement for CCSD
 
 Reference energy [au]:             -40.215617307041
 T1 contribution [au]:                0.000000000000
 Same spin MP2 energy [au]:          -0.037360172721
 Opposite spin MP2 energy [au]:      -0.170609527873
 MP2 correlation energy [au]:        -0.207969700594
 Total MP2 energy [au]:             -40.423587007635
 MP2 correction [au]:                -0.003281427308
 
 
 CPU time [min]:     0.174                   Wall time [min]:     0.008
 
 Starting CCSD iterations...
 
                     Residual norm          Energy
 Iteration  1        0.138682071443      -40.436532046651
 Iteration  2        0.035376782865      -40.442055747840
 Iteration  3        0.009772157893      -40.442638512376
 Iteration  4        0.002021005063      -40.442643011004
 Iteration  5        0.000374917231      -40.442649522983
 Iteration  6        0.000084803257      -40.442649399723
 Iteration  7        0.000020225262      -40.442650089861
 Iteration  8        0.000003739052      -40.442650146840
 
 CCSD iteration has converged in  8 steps.
      444.29 MB memory was utilized by CCSD
 
 T1 diagnostic:      7.996E-03            D1 diagnostic:      1.291E-02
 
 T1 contribution [au]:                                  0.000000000000
 PPL energy contribution [au]:                          0.060602871368
 Scaled PPL energy contribution [au]:                   0.061559671578

 OS-PPL energy contribution [au]:                       0.053774392208
 Scaled OS-PPL energy contribution [au]:                0.054767458602
 SS-PPL energy contribution [au]:                       0.006828479160
 Scaled SS-PPL energy contribution [au]:                0.006852777017

 Opposite spin CCSD energy [au]:                       -0.191003858161
 Same spin CCSD energy [au]:                           -0.036035727201
 CCSD correlation energy [au]:                         -0.227039585363
 CCSD correlation energy + MP2 correction [au]:        -0.230321012671
 CCSD correlation energy + MP2 + PPL corr. [au]:       -0.229364212460
 Total CCSD energy [au]:                              -40.442656892404
 Total CCSD energy + MP2 correction [au]:             -40.445938319712
 Total CCSD energy + MP2 + PPL corr. [au]:            -40.444981519501
 
 CPU time [min]:     0.856                   Wall time [min]:     0.027
 
 Calculation of (T) correction...
 
 
      124.68 MB memory is utilized for (T)

 0%       25%       50%       75%       100%
 |---------|---------|---------|---------| 
 
 (T) correction [au]:                                    -0.006941821007
 (T*) correction [au]:                                   -0.007051351775
 (T+) correction [au]:                                   -0.007050944876
 CCSD(T) correlation energy [au]:                        -0.233981406370
 CCSD(T) correlation energy + MP2 correction [au]:       -0.237262833678
 CCSD(T+) correlation en. + MP2 + PPL corr. [au]:        -0.236415157336
 Total CCSD(T) energy [au]:                             -40.449598713411
 Total CCSD(T) energy + MP2 correction [au]:            -40.452880140720
 Total CCSD(T+) energy + MP2 + PPL corr. [au]:          -40.452032464377
 
 CPU time [min]:     0.947                   Wall time [min]:     0.030
 
 ************************ 2023-02-04 11:50:03 *************************
                      Normal termination of mrcc.
 **********************************************************************
