 **********************************************************************
                          MRCC program system
 **********************************************************************
 
                              Written by
     Mihaly Kallay, Peter R. Nagy, David Mester, Laszlo Gyevi-Nagy,
        Jozsef Csoka, P. Bernat Szabo, Zoltan Rolik, Gyula Samu,
     Jozsef Csontos, Bence Hegely, Adam Ganyecz, Istvan Ladjanszki,
       Lorant Szegedy, Bence Ladoczki, Klara Petrov, Mate Farkas,
                    Pal D. Mezei, and Reka A. Horvath
 
        Department of Physical Chemistry and Materials Science
            Budapest University of Technology and Economics
                  Budapest P.O.Box 91, H-1521 Hungary
 
                              www.mrcc.hu
 
                      Release date: March 18, 2022

 ************************ 2023-02-04 11:52:28 *************************
 Executing minp...

 Reading input from MINP...
 
 Input file:
 
calc=FNO-CCSD(T)
verbosity=3
mem=220GB
unit=angs
scfiguess=small
scfalg=locfit1
ccmaxit=400
ccsdalg=dfdirect
ccsdthreads=4
ccsdmkl=thr
ptthreads=4
lnoepsv=1e-5
naf_cor=1e-2
basis=aug-cc-pVTZ
basis_sm=def2-SVP
dfbasis_scf=def2-QZVPP-RI-JK
dfbasis_cor=aug-cc-pVTZ-RI
unit=angs
geom=xyz
10

C    29.54344629    29.54344629    16.97505516
H    29.54344670    30.44187631    17.60392580
H    29.54344662    28.64496649    17.60393442
H    30.44658454    29.54342777    16.34911135
H    28.64030918    29.54342779    16.34911130
C    12.66144652    25.32292238    16.97524142
H    12.66146513    26.22572171    16.34882843
H    11.76295464    25.32292262    17.60416815
H    13.55998837    25.32292258    17.60417697
H    12.66146506    24.42012416    16.34882759

--------------------Output has been truncated-------------------------


--------------------Output has been truncated-------------------------


--------------------Output has been truncated-------------------------


--------------------Output has been truncated-------------------------


--------------------Output has been truncated-------------------------


--------------------Output has been truncated-------------------------


--------------------Output has been truncated-------------------------


--------------------Output has been truncated-------------------------


--------------------Output has been truncated-------------------------


--------------------Output has been truncated-------------------------


 
 Reference energy [au]:                       -40.213015306140
 DF-MP2 singlet pair energy [au]:              -0.164419544606
 DF-MP2 triplet pair energy [au]:              -0.036594239874
 DF-SCS-MP2 correlation energy [au]:           -0.209501533485
 DF-SCS-MP2 energy [au]:                      -40.422516839626
 DF-SOS-MP2 correlation energy [au]:           -0.213745407988
 DF-SOS-MP2 energy [au]:                      -40.426760714129
 DF-MP2 correlation energy [au]:               -0.201013784480
 DF-MP2 energy [au]:                          -40.414029090620

 Results in FNO basis:
 
 
 Reference energy [au]:                       -40.213015306140
 DF-MP2 singlet pair energy [au]:              -0.163769260836
 DF-MP2 triplet pair energy [au]:              -0.036550481512
 DF-SCS-MP2 correlation energy [au]:           -0.208706606841
 DF-SCS-MP2 energy [au]:                      -40.421721912981
 DF-SOS-MP2 correlation energy [au]:           -0.212900039087
 DF-SOS-MP2 energy [au]:                      -40.425915345228
 DF-MP2 correlation energy [au]:               -0.200319742349
 DF-MP2 energy [au]:                          -40.413335048489

 Results in NAF basis:
 
 
 Reference energy [au]:                       -40.213015306140
 DF-MP2 singlet pair energy [au]:              -0.163734981517
 DF-MP2 triplet pair energy [au]:              -0.036569761274
 DF-SCS-MP2 correlation energy [au]:           -0.208671898245
 DF-SCS-MP2 energy [au]:                      -40.421687204385
 DF-SOS-MP2 correlation energy [au]:           -0.212855475971
 DF-SOS-MP2 energy [au]:                      -40.425870782112
 DF-MP2 correlation energy [au]:               -0.200304742791
 DF-MP2 energy [au]:                          -40.413320048931

 ************************ 2023-02-04 11:52:44 *************************
 Executing ccsd...

 Allocation of 220.0 Gbytes of memory...

 Direct DF-CCSD(T) calculation
 
 Convergence criterion:  1.0E-06
 
 Number of occupied/virtual/auxiliary orbitals:     4    83   221
     89.04 MB is the minimal memory requirement for (T)
     22.38 MB is the minimal memory requirement for CCSD
 
 Reference energy [au]:             -40.213015306140
 T1 contribution [au]:                0.000000000000
 Same spin MP2 energy [au]:          -0.036560094012
 Opposite spin MP2 energy [au]:      -0.163752039638
 MP2 correlation energy [au]:        -0.200312133650
 Total MP2 energy [au]:             -40.413327439790
 MP2 correction [au]:                -0.000701650830
 
 
 CPU time [min]:     0.062                   Wall time [min]:     0.004
 
 Starting CCSD iterations...
 
                     Residual norm          Energy
 Iteration  1        0.131888977575      -40.427795278762
 Iteration  2        0.033755717490      -40.433318576056
 Iteration  3        0.008182081146      -40.433784780437
 Iteration  4        0.001914000477      -40.433787385609
 Iteration  5        0.000362979131      -40.433794438273
 Iteration  6        0.000073627535      -40.433794571123
 Iteration  7        0.000017731604      -40.433795176539
 Iteration  8        0.000003100587      -40.433795194258
 
 CCSD iteration has converged in  8 steps.
      207.43 MB memory was utilized by CCSD
 
 T1 diagnostic:      7.476E-03            D1 diagnostic:      1.210E-02
 
 T1 contribution [au]:                                  0.000000000000
 PPL energy contribution [au]:                          0.057488470332
 Scaled PPL energy contribution [au]:                   0.057691518910

 OS-PPL energy contribution [au]:                       0.050873495707
 Scaled OS-PPL energy contribution [au]:                0.051085652054
 SS-PPL energy contribution [au]:                       0.006614974626
 Scaled SS-PPL energy contribution [au]:                0.006619538398

 Opposite spin CCSD energy [au]:                       -0.185469477301
 Same spin CCSD energy [au]:                           -0.035321849520
 CCSD correlation energy [au]:                         -0.220791326821
 CCSD correlation energy + MP2 correction [au]:        -0.221492977651
 CCSD correlation energy + MP2 + PPL corr. [au]:       -0.221289929074
 Total CCSD energy [au]:                              -40.433806632962
 Total CCSD energy + MP2 correction [au]:             -40.434508283792
 Total CCSD energy + MP2 + PPL corr. [au]:            -40.434305235215
 
 CPU time [min]:     0.390                   Wall time [min]:     0.013
 
 Calculation of (T) correction...
 
 
       67.65 MB memory is utilized for (T)

 0%       25%       50%       75%       100%
 |---------|---------|---------|---------| 
 
 (T) correction [au]:                                    -0.006568879309
 (T*) correction [au]:                                   -0.006591888697
 (T+) correction [au]:                                   -0.006591908935
 CCSD(T) correlation energy [au]:                        -0.227360206130
 CCSD(T) correlation energy + MP2 correction [au]:       -0.228061856960
 CCSD(T+) correlation en. + MP2 + PPL corr. [au]:        -0.227881838009
 Total CCSD(T) energy [au]:                             -40.440375512270
 Total CCSD(T) energy + MP2 correction [au]:            -40.441077163101
 Total CCSD(T+) energy + MP2 + PPL corr. [au]:          -40.440897144149
 
 CPU time [min]:     0.455                   Wall time [min]:     0.015
 
 ************************ 2023-02-04 11:52:45 *************************
                      Normal termination of mrcc.
 **********************************************************************
