 vasp.6.3.0 20Jan22 (build Dec 25 2023 18:06:01) complex                         
 executed on        HPECrayEX_GCC date 2024.08.19  01:31:30
 running  128 mpi-ranks, with    1 threads/rank
 distrk:  each k-point on  128 cores,    1 groups
 distr:  one band on NCORE=   8 cores,   16 groups


--------------------------------------------------------------------------------------------------------


 INCAR:
   SYSTEM = MgO-rocksalt
   ISMEAR = 0
   SIGMA = 0.05
   EDIFF = 1E-6
   ALGO = ALL
   ISTART = 0
   IBRION = -1
   NSW = 0
   ISYM = 0
   DIPOL = 0.5 0.5 0.5
   IDIPOL = 3
   LDIPOL = .TRUE.
   GGA = RE
   AGGAC = 0.0
   LUSE_VDW = .TRUE.
   LASPH = .TRUE.
   ENCUT = 600
   PREC = Accurate
   LASPH = .TRUE.
   LREAL = .FALSE.
   ISPIN = 1
   NELM = 200
   NELMIN = 8
   NCORE = 8
   KPAR = 1
   LWAVE = .FALSE.
   LCHARG = .FALSE.

 POTCAR:    PAW_PBE C 08Apr2002                   
 POTCAR:    PAW_PBE O 08Apr2002                   
 -----------------------------------------------------------------------------
|                                                                             |
|               ----> ADVICE to this user running VASP <----                  |
|                                                                             |
|     You have switched on vdW-DFT.                                           |
|     This routine was written and supplied by Jiri Klimes. We recommend      |
|     that you carefully read and cite the following publications:            |
|       J. Klimes, D.R. Bowler, A. Michelides                                 |
|          J. Phys.: Cond Matt. 22 022201 (2010)                              |
|       J. Klimes, D.R. Bowler, A. Michelides                                 |
|          Phys. Rev. B. 83, 195131 (2011)                                    |
|     and references therein.                                                 |
|                                                                             |
 -----------------------------------------------------------------------------

 POTCAR:    PAW_PBE C 08Apr2002                   
   SHA256 =  253f7b50bb8d59471dbedb8285d89021f4a42ed1a2c5d38a03a736e69125dd95 C/POTCAR              
   COPYR  = (c) Copyright 08Apr2002 Georg Kresse                                                    
   COPYR  = This file is part of the software VASP. Any use, copying, and all other rights are regul
   COPYR  = If you do not have a valid VASP license, you may not use, copy or distribute this file. 
   VRHFIN =C: s2p2                                                                                  
   LEXCH  = PE                                                                                      
   EATOM  =   147.1560 eV,   10.8157 Ry                                                             
                                                                                                    
   TITEL  = PAW_PBE C 08Apr2002                                                                     
   LULTRA =        F    use ultrasoft PP ?                                                          
   IUNSCR =        1    unscreen: 0-lin 1-nonlin 2-no                                               
   RPACOR =    1.200    partial core radius                                                         
   POMASS =   12.011; ZVAL   =    4.000    mass and valenz                                          
   RCORE  =    1.500    outmost cutoff radius                                                       
   RWIGS  =    1.630; RWIGS  =    0.863    wigner-seitz radius (au A)                               
   ENMAX  =  400.000; ENMIN  =  300.000 eV                                                          
   ICORE  =        2    local potential                                                             
   LCOR   =        T    correct aug charges                                                         
   LPAW   =        T    paw PP                                                                      
   EAUG   =  644.873                                                                                
   DEXC   =    0.000                                                                                
   RMAX   =    1.529    core radius for proj-oper                                                   
   RAUG   =    1.300    factor for augmentation sphere                                              
   RDEP   =    1.501    radius for radial grids                                                     
   RDEPT  =    1.300    core radius for aug-charge                                                  
                                                                                                    
   Atomic configuration                                                                             
    4 entries                                                                                       
     n  l   j            E        occ.                                                              
     1  0  0.50      -273.3789   2.0000                                                             
     2  0  0.50       -13.7508   2.0000                                                             
     2  1  0.50        -5.2854   2.0000                                                             
     3  2  1.50        -5.4423   0.0000                                                             
   Description                                                                                      
     l       E           TYP  RCUT    TYP  RCUT                                                     
     0    -13.7508458     23  1.200                                                                 
     0     -8.2022199     23  1.200                                                                 
     1     -5.2854383     23  1.500                                                                 
     1     34.0145650     23  1.500                                                                 
     2     -5.4423304      7  1.500                                                                 
  local pseudopotential read in
  partial core-charges read in
  partial kinetic energy density read in
  atomic valenz-charges read in
  non local Contribution for L=           0  read in
    real space projection operators read in
  non local Contribution for L=           0  read in
    real space projection operators read in
  non local Contribution for L=           1  read in
    real space projection operators read in
  non local Contribution for L=           1  read in
    real space projection operators read in
    PAW grid and wavefunctions read in

   number of l-projection  operators is LMAX  =           4
   number of lm-projection operators is LMMAX =           8

 POTCAR:    PAW_PBE O 08Apr2002                   
   SHA256 =  818f92134a0a090dccd8ba1447fa70422a3b330e708bb4f08108d8ae51209ddf O/POTCAR              
   COPYR  = (c) Copyright 08Apr2002 Georg Kresse                                                    
   COPYR  = This file is part of the software VASP. Any use, copying, and all other rights are regul
   COPYR  = If you do not have a valid VASP license, you may not use, copy or distribute this file. 
   VRHFIN =O: s2p4                                                                                  
   LEXCH  = PE                                                                                      
   EATOM  =   432.3788 eV,   31.7789 Ry                                                             
                                                                                                    
   TITEL  = PAW_PBE O 08Apr2002                                                                     
   LULTRA =        F    use ultrasoft PP ?                                                          
   IUNSCR =        1    unscreen: 0-lin 1-nonlin 2-no                                               
   RPACOR =    1.200    partial core radius                                                         
   POMASS =   16.000; ZVAL   =    6.000    mass and valenz                                          
   RCORE  =    1.520    outmost cutoff radius                                                       
   RWIGS  =    1.550; RWIGS  =    0.820    wigner-seitz radius (au A)                               
   ENMAX  =  400.000; ENMIN  =  300.000 eV                                                          
   ICORE  =        2    local potential                                                             
   LCOR   =        T    correct aug charges                                                         
   LPAW   =        T    paw PP                                                                      
   EAUG   =  605.392                                                                                
   DEXC   =    0.000                                                                                
   RMAX   =    1.553    core radius for proj-oper                                                   
   RAUG   =    1.300    factor for augmentation sphere                                              
   RDEP   =    1.550    radius for radial grids                                                     
   RDEPT  =    1.329    core radius for aug-charge                                                  
                                                                                                    
   Atomic configuration                                                                             
    4 entries                                                                                       
     n  l   j            E        occ.                                                              
     1  0  0.50      -514.6923   2.0000                                                             
     2  0  0.50       -23.9615   2.0000                                                             
     2  1  0.50        -9.0305   4.0000                                                             
     3  2  1.50        -9.5241   0.0000                                                             
   Description                                                                                      
     l       E           TYP  RCUT    TYP  RCUT                                                     
     0    -23.9615318     23  1.200                                                                 
     0     -9.5240782     23  1.200                                                                 
     1     -9.0304911     23  1.520                                                                 
     1      8.1634956     23  1.520                                                                 
     2     -9.5240782      7  1.500                                                                 
  local pseudopotential read in
  partial core-charges read in
  partial kinetic energy density read in
  kinetic energy density of atom read in
  atomic valenz-charges read in
  non local Contribution for L=           0  read in
    real space projection operators read in
  non local Contribution for L=           0  read in
    real space projection operators read in
  non local Contribution for L=           1  read in
    real space projection operators read in
  non local Contribution for L=           1  read in
    real space projection operators read in
    PAW grid and wavefunctions read in

   number of l-projection  operators is LMAX  =           4
   number of lm-projection operators is LMMAX =           8

 -----------------------------------------------------------------------------
|                                                                             |
|               ----> ADVICE to this user running VASP <----                  |
|                                                                             |
|     You enforced a specific xc type in the INCAR file but a different       |
|     type was found in the POTCAR file.                                      |
|     I HOPE YOU KNOW WHAT YOU ARE DOING!                                     |
|                                                                             |
 -----------------------------------------------------------------------------

  PAW_PBE C 08Apr2002                   :
 energy of atom  1       EATOM= -147.1560
 kinetic energy error for atom=    0.0057 (will be added to EATOM!!)
  PAW_PBE O 08Apr2002                   :
 energy of atom  2       EATOM= -432.3788
 kinetic energy error for atom=    0.0168 (will be added to EATOM!!)


 POSCAR:  C  O
  positions in direct lattice
  No initial velocities read in
 exchange correlation table for  LEXCH =       40
   RHO(1)=    0.500       N(1)  =     2000
   RHO(2)=  100.500       N(2)  =     4000



--------------------------------------------------------------------------------------------------------


 ion  position               nearest neighbor table
   1  0.500  0.500  0.484-   3 1.26   2 1.26
   2  0.500  0.567  0.516-   1 1.26
   3  0.500  0.433  0.516-   1 1.26


IMPORTANT INFORMATION: All symmetrisations will be switched off!
NOSYMM: (Re-)initialisation of all symmetry stuff for point group C_1.


----------------------------------------------------------------------------------------

                                     Primitive cell                                     

  volume of cell :    4023.5074

  direct lattice vectors                    reciprocal lattice vectors
    15.000000460  0.000000000  0.000000000     0.066666665  0.000000000  0.000000000
     0.000000000 17.311465239  0.000000000     0.000000000  0.057765185  0.000000000
     0.000000000  0.000000000 15.494576092     0.000000000  0.000000000  0.064538713

  length of vectors
    15.000000460 17.311465239 15.494576092     0.066666665  0.057765185  0.064538713

  position of ions in fractional coordinates (direct lattice)
     0.499999985  0.499994117  0.484040348
     0.500000015  0.566761109  0.515959652
     0.499999986  0.433238891  0.515958064

  ion indices of the primitive-cell ions
   primitive index   ion index
                 1           1
                 2           2
                 3           3

----------------------------------------------------------------------------------------



 KPOINTS: pymatgen v2020.8.13 with grid density = 

Automatic generation of k-mesh.
 Grid dimensions read from file:
 generate k-points for:    2    2    1

 Generating k-lattice:

  Cartesian coordinates                     Fractional coordinates (reciprocal lattice)
     0.033333332  0.000000000  0.000000000     0.500000000  0.000000000  0.000000000
     0.000000000  0.028882593  0.000000000     0.000000000  0.500000000  0.000000000
     0.000000000  0.000000000  0.064538713     0.000000000  0.000000000  1.000000000

  Length of vectors
     0.033333332  0.028882593  0.064538713

  Shift w.r.t. Gamma in fractional coordinates (k-lattice)
     0.000000000  0.000000000  0.000000000

 
 Subroutine IBZKPT returns following result:
 ===========================================
 
 Found      4 irreducible k-points:
 
 Following reciprocal coordinates:
            Coordinates               Weight
  0.000000  0.000000  0.000000      1.000000
  0.500000  0.000000  0.000000      1.000000
  0.000000  0.500000  0.000000      1.000000
  0.500000  0.500000  0.000000      1.000000
 
 Following cartesian coordinates:
            Coordinates               Weight
  0.000000  0.000000  0.000000      1.000000
  0.033333  0.000000  0.000000      1.000000
  0.000000  0.028883  0.000000      1.000000
  0.033333  0.028883  0.000000      1.000000
 


--------------------------------------------------------------------------------------------------------




 Dimension of arrays:
   k-points           NKPTS =      4   k-points in BZ     NKDIM =      4   number of bands    NBANDS=     16
   number of dos      NEDOS =    301   number of ions     NIONS =      3
   non local maximal  LDIM  =      4   non local SUM 2l+1 LMDIM =      8
   total plane-waves  NPLWV = ******
   max r-space proj   IRMAX =      1   max aug-charges    IRDMAX=   7024
   dimension x,y,z NGX =   120 NGY =  140 NGZ =  126
   dimension x,y,z NGXF=   240 NGYF=  280 NGZF=  252
   support grid    NGXF=   240 NGYF=  280 NGZF=  252
   ions per type =               1   2
   NGX,Y,Z   is equivalent  to a cutoff of  13.30, 13.44, 13.52 a.u.
   NGXF,Y,Z  is equivalent  to a cutoff of  26.60, 26.89, 27.04 a.u.

 SYSTEM =  MgO-rocksalt                            
 POSCAR =   C  O                                   

--------------------------------------------------------------------------------------------------------


  energy-cutoff  :      600.00
  volume of cell :     4023.51
      direct lattice vectors                 reciprocal lattice vectors
    15.000000460  0.000000000  0.000000000     0.066666665  0.000000000  0.000000000
     0.000000000 17.311465239  0.000000000     0.000000000  0.057765185  0.000000000
     0.000000000  0.000000000 15.494576092     0.000000000  0.000000000  0.064538713

  length of vectors
    15.000000460 17.311465239 15.494576092     0.066666665  0.057765185  0.064538713



 k-points in units of 2pi/SCALE and weight: pymatgen v2020.8.13 with grid density = 
   0.00000000  0.00000000  0.00000000       0.250
   0.03333333  0.00000000  0.00000000       0.250
   0.00000000  0.02888259  0.00000000       0.250
   0.03333333  0.02888259  0.00000000       0.250

 k-points in reciprocal lattice and weights: pymatgen v2020.8.13 with grid density = 
   0.00000000  0.00000000  0.00000000       0.250
   0.50000000  0.00000000  0.00000000       0.250
   0.00000000  0.50000000  0.00000000       0.250
   0.50000000  0.50000000  0.00000000       0.250

 position of ions in fractional coordinates (direct lattice) 
   0.49999998  0.49999412  0.48404035
   0.50000002  0.56676111  0.51595965
   0.49999999  0.43323889  0.51595806

 position of ions in cartesian coordinates  (Angst):
   7.50000000  8.65563078  7.50000000
   7.50000046  9.81146524  7.99457609
   7.50000003  7.50000000  7.99455148



--------------------------------------------------------------------------------------------------------

--------------------------------------- Iteration      FINAL  ---------------------------------------


--------------------OUTCAR has been truncated-------------------------


--------------------OUTCAR has been truncated-------------------------


--------------------OUTCAR has been truncated-------------------------


--------------------OUTCAR has been truncated-------------------------


--------------------OUTCAR has been truncated-------------------------


--------------------OUTCAR has been truncated-------------------------


--------------------OUTCAR has been truncated-------------------------


--------------------OUTCAR has been truncated-------------------------


--------------------OUTCAR has been truncated-------------------------


--------------------OUTCAR has been truncated-------------------------


  FORCE on cell =-STRESS in cart. coord.  units (eV):
  Direction    XX          YY          ZZ          XY          YZ          ZX
  --------------------------------------------------------------------------------------
  Alpha Z     0.26586     0.26586     0.26586
  Ewald     -90.83232   555.33702   -15.96028     0.00013    -0.02198     0.00004
  Hartree   320.92423   644.88840   336.35854     0.00007    -0.00047     0.00001
  E(xc)     -76.40026   -73.40079   -76.05001     0.00000    -0.00026     0.00000
  Local    -460.18003 -1388.09766  -533.54987    -0.00019     0.01989    -0.00005
  n-local   -46.96549   -51.54664   -45.65638    -0.00000     0.00257     0.00000
  augment    13.35819    12.08726    11.87353    -0.00000    -0.00043    -0.00000
  Kinetic   339.74076   294.65730   318.54075    -0.00001    -0.00334    -0.00001
  Fock        0.00000     0.00000     0.00000     0.00000     0.00000     0.00000
  -------------------------------------------------------------------------------------
  Total      -0.08907    -5.80926    -4.17785    -0.00000    -0.00402    -0.00000
  in kB      -0.03547    -2.31327    -1.66364    -0.00000    -0.00160    -0.00000
  external pressure =       -1.34 kB  Pullay stress =        0.00 kB


 VOLUME and BASIS-vectors are now :
 -----------------------------------------------------------------------------
  energy-cutoff  :      600.00
  volume of cell :     4023.51
      direct lattice vectors                 reciprocal lattice vectors
    15.000000460  0.000000000  0.000000000     0.066666665  0.000000000  0.000000000
     0.000000000 17.311465239  0.000000000     0.000000000  0.057765185  0.000000000
     0.000000000  0.000000000 15.494576092     0.000000000  0.000000000  0.064538713

  length of vectors
    15.000000460 17.311465239 15.494576092     0.066666665  0.057765185  0.064538713


 FORCES acting on ions:
    Electron-Ion                     Ewald-Force                    Non-Local-Force
 -----------------------------------------------------------------------------------------------
   0.814E-04 -.489E-01 0.173E+03   -.843E-04 0.591E-01 -.172E+03   0.854E-05 -.208E-02 0.736E+01
   -.763E-04 -.250E+03 -.641E+02   0.977E-04 0.297E+03 0.858E+02   -.230E-04 -.494E+02 -.258E+02
   0.200E-04 0.250E+03 -.642E+02   -.133E-04 -.297E+03 0.859E+02   -.825E-05 0.494E+02 -.258E+02
 -----------------------------------------------------------------------------------------------
   0.250E-04 -.865E-02 0.443E+02   -.311E-16 -.568E-13 0.000E+00   -.227E-04 0.878E-02 -.443E+02


 POSITION                                       TOTAL-FORCE (eV/Angst)
 -----------------------------------------------------------------------------------
      7.50000      8.65563      7.50000         0.000005      0.007971      8.259903
      7.50000      9.81147      7.99458        -0.000002     -2.464729     -4.131307
      7.50000      7.50000      7.99455        -0.000002      2.456757     -4.128596
 -----------------------------------------------------------------------------------
    total drift:                                0.000002      0.000135      0.000542


--------------------------------------------------------------------------------------------------------



  FREE ENERGIE OF THE ION-ELECTRON SYSTEM (eV)
  ---------------------------------------------------
  free  energy   TOTEN  =       -15.38535546 eV

  energy  without entropy=      -15.38535546  energy(sigma->0) =      -15.38535546



--------------------------------------------------------------------------------------------------------


    POTLOK:  cpu time      2.9414: real time      2.9432


--------------------------------------------------------------------------------------------------------


     LOOP+:  cpu time    103.9015: real time    103.9996
    4ORBIT:  cpu time      0.0000: real time      0.0000

 total amount of memory used by VASP MPI-rank0    73759. kBytes
=======================================================================

   base      :      30000. kBytes
   nonl-proj :       9408. kBytes
   fftplans  :      12555. kBytes
   grid      :      18565. kBytes
   one-center:          3. kBytes
   wavefun   :       3228. kBytes

  
  
 General timing and accounting informations for this job:
 ========================================================
  
                  Total CPU time used (sec):      111.806
                            User time (sec):      109.955
                          System time (sec):        1.850
                         Elapsed time (sec):      113.585
  
                   Maximum memory used (kb):      360600.
                   Average memory used (kb):          N/A
  
                          Minor page faults:        51873
                          Major page faults:         1240
                 Voluntary context switches:         3562
