 vasp.6.3.0 20Jan22 (build Aug 21 2024 11:13:42) complex                         
 executed on        HPECrayEX_GCC date 2024.08.27  13:24:43
 running  512 mpi-ranks, with    1 threads/rank
 distrk:  each k-point on  512 cores,    1 groups
 distr:  one band on NCORE=   8 cores,   64 groups


--------------------------------------------------------------------------------------------------------


 INCAR:
   SYSTEM = MgO-rocksalt
   ISMEAR = 0
   SIGMA = 0.05
   EDIFF = 1E-6
   ALGO = ALL
   ISTART = 0
   IBRION = -1
   NSW = 0
   ISYM = 0
   DIPOL = 0.5 0.5 0.5
   IDIPOL = 3
   LDIPOL = .TRUE.
   GGA = RE
   AGGAC = 0.0
   LUSE_VDW = .TRUE.
   LASPH = .TRUE.
   ENCUT = 600
   PREC = Accurate
   LASPH = .TRUE.
   LREAL = .FALSE.
   ISPIN = 1
   NELM = 200
   NELMIN = 8
   NCORE = 8
   KPAR = 1
   LWAVE = .FALSE.
   LCHARG = .FALSE.

 POTCAR:    PAW_PBE Mg_pv 13Apr2007               
 POTCAR:    PAW_PBE O 08Apr2002                   
 -----------------------------------------------------------------------------
|                                                                             |
|               ----> ADVICE to this user running VASP <----                  |
|                                                                             |
|     You have switched on vdW-DFT.                                           |
|     This routine was written and supplied by Jiri Klimes. We recommend      |
|     that you carefully read and cite the following publications:            |
|       J. Klimes, D.R. Bowler, A. Michelides                                 |
|          J. Phys.: Cond Matt. 22 022201 (2010)                              |
|       J. Klimes, D.R. Bowler, A. Michelides                                 |
|          Phys. Rev. B. 83, 195131 (2011)                                    |
|     and references therein.                                                 |
|                                                                             |
 -----------------------------------------------------------------------------

 POTCAR:    PAW_PBE Mg_pv 13Apr2007               
   SHA256 =  f474ac0dd33840b9ae76c01d57fea79fdf77cdfbb07d5ade72c65f83c709b62b Mg_pv/POTCAR          
   COPYR  = (c) Copyright 13Apr2007 Georg Kresse                                                    
   COPYR  = This file is part of the software VASP. Any use, copying, and all other rights are regul
   COPYR  = If you do not have a valid VASP license, you may not use, copy or distribute this file. 
   VRHFIN =Mg: p6s2                                                                                 
   LEXCH  = PE                                                                                      
   EATOM  =  1056.7344 eV,   77.6678 Ry                                                             
                                                                                                    
   TITEL  = PAW_PBE Mg_pv 13Apr2007                                                                 
   LULTRA =        F    use ultrasoft PP ?                                                          
   IUNSCR =        1    unscreen: 0-lin 1-nonlin 2-no                                               
   RPACOR =    1.500    partial core radius                                                         
   POMASS =   24.305; ZVAL   =    8.000    mass and valenz                                          
   RCORE  =    2.000    outmost cutoff radius                                                       
   RWIGS  =    2.000; RWIGS  =    1.058    wigner-seitz radius (au A)                               
   ENMAX  =  403.929; ENMIN  =  302.947 eV                                                          
   RCLOC  =    1.506    cutoff for local pot                                                        
   LCOR   =        T    correct aug charges                                                         
   LPAW   =        T    paw PP                                                                      
   EAUG   =  758.780                                                                                
   DEXC   =    0.000                                                                                
   RMAX   =    2.045    core radius for proj-oper                                                   
   RAUG   =    1.300    factor for augmentation sphere                                              
   RDEP   =    2.025    radius for radial grids                                                     
   RDEPT  =    1.557    core radius for aug-charge                                                  
                                                                                                    
   Atomic configuration                                                                             
    5 entries                                                                                       
     n  l   j            E        occ.                                                              
     1  0  0.50     -1259.6230   2.0000                                                             
     2  0  0.50       -79.8442   2.0000                                                             
     2  1  1.50       -46.6121   6.0000                                                             
     3  0  0.50        -4.7055   2.0000                                                             
     3  2  1.50        -1.3606   0.0000                                                             
   Description                                                                                      
     l       E           TYP  RCUT    TYP  RCUT                                                     
     1    -46.6121073     23  1.600                                                                 
     1      2.7211652     23  1.600                                                                 
     0     -4.7054661     23  2.000                                                                 
     0     61.2262170     23  2.000                                                                 
     2     -1.3605826     23  2.000                                                                 
  local pseudopotential read in
  partial core-charges read in
  partial kinetic energy density read in
  atomic valenz-charges read in
  non local Contribution for L=           1  read in
    real space projection operators read in
  non local Contribution for L=           1  read in
    real space projection operators read in
  non local Contribution for L=           0  read in
    real space projection operators read in
  non local Contribution for L=           0  read in
    real space projection operators read in
  non local Contribution for L=           2  read in
    real space projection operators read in
    PAW grid and wavefunctions read in

   number of l-projection  operators is LMAX  =           5
   number of lm-projection operators is LMMAX =          13

 POTCAR:    PAW_PBE O 08Apr2002                   
   SHA256 =  818f92134a0a090dccd8ba1447fa70422a3b330e708bb4f08108d8ae51209ddf O/POTCAR              
   COPYR  = (c) Copyright 08Apr2002 Georg Kresse                                                    
   COPYR  = This file is part of the software VASP. Any use, copying, and all other rights are regul
   COPYR  = If you do not have a valid VASP license, you may not use, copy or distribute this file. 
   VRHFIN =O: s2p4                                                                                  
   LEXCH  = PE                                                                                      
   EATOM  =   432.3788 eV,   31.7789 Ry                                                             
                                                                                                    
   TITEL  = PAW_PBE O 08Apr2002                                                                     
   LULTRA =        F    use ultrasoft PP ?                                                          
   IUNSCR =        1    unscreen: 0-lin 1-nonlin 2-no                                               
   RPACOR =    1.200    partial core radius                                                         
   POMASS =   16.000; ZVAL   =    6.000    mass and valenz                                          
   RCORE  =    1.520    outmost cutoff radius                                                       
   RWIGS  =    1.550; RWIGS  =    0.820    wigner-seitz radius (au A)                               
   ENMAX  =  400.000; ENMIN  =  300.000 eV                                                          
   ICORE  =        2    local potential                                                             
   LCOR   =        T    correct aug charges                                                         
   LPAW   =        T    paw PP                                                                      
   EAUG   =  605.392                                                                                
   DEXC   =    0.000                                                                                
   RMAX   =    1.553    core radius for proj-oper                                                   
   RAUG   =    1.300    factor for augmentation sphere                                              
   RDEP   =    1.550    radius for radial grids                                                     
   RDEPT  =    1.329    core radius for aug-charge                                                  
                                                                                                    
   Atomic configuration                                                                             
    4 entries                                                                                       
     n  l   j            E        occ.                                                              
     1  0  0.50      -514.6923   2.0000                                                             
     2  0  0.50       -23.9615   2.0000                                                             
     2  1  0.50        -9.0305   4.0000                                                             
     3  2  1.50        -9.5241   0.0000                                                             
   Description                                                                                      
     l       E           TYP  RCUT    TYP  RCUT                                                     
     0    -23.9615318     23  1.200                                                                 
     0     -9.5240782     23  1.200                                                                 
     1     -9.0304911     23  1.520                                                                 
     1      8.1634956     23  1.520                                                                 
     2     -9.5240782      7  1.500                                                                 
  local pseudopotential read in
  partial core-charges read in
  partial kinetic energy density read in
  kinetic energy density of atom read in
  atomic valenz-charges read in
  non local Contribution for L=           0  read in
    real space projection operators read in
  non local Contribution for L=           0  read in
    real space projection operators read in
  non local Contribution for L=           1  read in
    real space projection operators read in
  non local Contribution for L=           1  read in
    real space projection operators read in
    PAW grid and wavefunctions read in

   number of l-projection  operators is LMAX  =           4
   number of lm-projection operators is LMMAX =           8

 -----------------------------------------------------------------------------
|                                                                             |
|               ----> ADVICE to this user running VASP <----                  |
|                                                                             |
|     You have a (more or less) 'large supercell' and for larger cells it     |
|     might be more efficient to use real-space projection operators.         |
|     Therefore, try LREAL= Auto in the INCAR file.                           |
|     Mind: For very accurate calculation, you might also keep the            |
|     reciprocal projection scheme (i.e. LREAL=.FALSE.).                      |
|                                                                             |
 -----------------------------------------------------------------------------

 -----------------------------------------------------------------------------
|                                                                             |
|               ----> ADVICE to this user running VASP <----                  |
|                                                                             |
|     You enforced a specific xc type in the INCAR file but a different       |
|     type was found in the POTCAR file.                                      |
|     I HOPE YOU KNOW WHAT YOU ARE DOING!                                     |
|                                                                             |
 -----------------------------------------------------------------------------

  PAW_PBE Mg_pv 13Apr2007               :
 energy of atom  1       EATOM=-1056.7344
 kinetic energy error for atom=    0.0221 (will be added to EATOM!!)
  PAW_PBE O 08Apr2002                   :
 energy of atom  2       EATOM= -432.3788
 kinetic energy error for atom=    0.0168 (will be added to EATOM!!)


 POSCAR: Mg  O
  positions in direct lattice
  No initial velocities read in
 exchange correlation table for  LEXCH =       40
   RHO(1)=    0.500       N(1)  =     2000
   RHO(2)=  100.500       N(2)  =     4000



--------------------------------------------------------------------------------------------------------


 ion  position               nearest neighbor table
   1  0.250  0.000  0.351-  33 2.12  35 2.12  36 2.12  43 2.12  52 2.12
   2  0.500  0.250  0.351-  34 2.12  35 2.12  36 2.12  44 2.12  51 2.12
   3  0.250  0.250  0.450-  35 2.12  34 2.12  33 2.12  41 2.12  50 2.12  39 2.12
   4  0.500  0.000  0.450-  36 2.12  34 2.12  33 2.12  42 2.12  49 2.12  40 2.13
   5  0.250  0.000  0.550-  40 2.11  39 2.12  47 2.12  56 2.12  33 2.13  37 2.15
   6  0.500  0.250  0.550-  55 2.11  48 2.12  40 2.12  39 2.12  34 2.13  38 2.15
   7  0.250  0.250  0.648-  39 2.10  54 2.11  38 2.12  37 2.12  45 2.12
   8  0.500  0.001  0.649-  38 2.12  40 2.12  46 2.12  37 2.12  53 2.12
   9  0.250  0.500  0.351-  41 2.12  35 2.12  43 2.12  44 2.12  60 2.12
  10  0.500  0.750  0.351-  42 2.12  36 2.12  43 2.12  44 2.12  59 2.12
  11  0.250  0.750  0.450-  43 2.12  41 2.12  42 2.12  33 2.12  58 2.12  47 2.12
  12  0.500  0.500  0.450-  44 2.12  41 2.12  42 2.12  34 2.12  57 2.12  48 2.13
  13  0.250  0.500  0.550-  48 2.11  47 2.12  39 2.12  64 2.12  41 2.13  45 2.15
  14  0.500  0.750  0.550-  63 2.11  40 2.12  48 2.12  47 2.12  42 2.13  46 2.15
  15  0.250  0.750  0.648-  47 2.10  62 2.11  46 2.12  45 2.12  37 2.12
  16  0.500  0.501  0.649-  46 2.12  48 2.12  38 2.12  45 2.12  61 2.12
  17  0.750  0.000  0.351-  49 2.12  36 2.12  51 2.12  52 2.12  59 2.12
  18  0.000  0.250  0.351-  50 2.12  35 2.12  51 2.12  52 2.12  60 2.12
  19  0.750  0.250  0.450-  51 2.12  49 2.12  50 2.12  34 2.12  57 2.12  55 2.13
  20  0.000  0.000  0.450-  52 2.12  49 2.12  50 2.12  33 2.12  58 2.12  56 2.12
  21  0.750  0.000  0.550-  40 2.11  55 2.12  63 2.12  56 2.12  49 2.13  53 2.15
  22  1.000  0.250  0.550-  55 2.11  64 2.12  56 2.12  39 2.12  50 2.13  54 2.15
  23  0.750  0.251  0.649-  61 2.12  55 2.12  53 2.12  54 2.12  38 2.12
  24  0.000  0.000  0.648-  56 2.10  37 2.11  53 2.12  62 2.12  54 2.12
  25  0.750  0.500  0.351-  57 2.12  51 2.12  44 2.12  59 2.12  60 2.12
  26  0.000  0.750  0.351-  58 2.12  52 2.12  43 2.12  59 2.12  60 2.12
  27  0.750  0.750  0.450-  59 2.12  49 2.12  57 2.12  58 2.12  42 2.12  63 2.13
  28  0.000  0.500  0.450-  60 2.12  50 2.12  57 2.12  58 2.12  41 2.12  64 2.12
  29  0.750  0.500  0.550-  48 2.11  63 2.12  55 2.12  64 2.12  57 2.13  61 2.15
  30  1.000  0.750  0.550-  63 2.11  64 2.12  56 2.12  47 2.12  58 2.13  62 2.15
  31  0.750  0.751  0.649-  53 2.12  63 2.12  61 2.12  62 2.12  46 2.12
  32  0.000  0.500  0.648-  64 2.10  45 2.11  61 2.12  54 2.12  62 2.12
  33  0.250  0.000  0.450-   1 2.12   3 2.12   4 2.12  11 2.12  20 2.12   5 2.13
  34  0.500  0.250  0.450-   2 2.12   3 2.12   4 2.12  12 2.12  19 2.12   6 2.13
  35  0.250  0.250  0.351-   3 2.12   2 2.12   1 2.12   9 2.12  18 2.12
  36  0.500  0.000  0.351-   4 2.12   2 2.12   1 2.12  10 2.12  17 2.12
  37  0.249  0.001  0.651-  24 2.11   7 2.12  15 2.12   8 2.12   5 2.15
  38  0.500  0.250  0.651-   8 2.12   7 2.12  16 2.12  23 2.12   6 2.15
  39  0.250  0.250  0.550-   7 2.10   5 2.12  13 2.12   6 2.12   3 2.12  22 2.12
  40  0.500  0.000  0.550-  21 2.11   5 2.11   8 2.12  14 2.12   6 2.12   4 2.13
  41  0.250  0.500  0.450-   9 2.12   3 2.12  11 2.12  12 2.12  28 2.12  13 2.13
  42  0.500  0.750  0.450-  10 2.12   4 2.12  11 2.12  12 2.12  27 2.12  14 2.13
  43  0.250  0.750  0.351-  11 2.12   9 2.12  10 2.12   1 2.12  26 2.12
  44  0.500  0.500  0.351-  12 2.12   9 2.12  10 2.12   2 2.12  25 2.12
  45  0.249  0.501  0.651-  32 2.11  15 2.12   7 2.12  16 2.12  13 2.15
  46  0.500  0.750  0.651-  16 2.12  15 2.12   8 2.12  31 2.12  14 2.15
  47  0.250  0.750  0.550-  15 2.10  13 2.12   5 2.12  14 2.12  11 2.12  30 2.12
  48  0.500  0.500  0.550-  29 2.11  13 2.11  16 2.12   6 2.12  14 2.12  12 2.13
  49  0.750  0.000  0.450-  17 2.12   4 2.12  19 2.12  20 2.12  27 2.12  21 2.13
  50  0.000  0.250  0.450-  18 2.12   3 2.12  19 2.12  20 2.12  28 2.12  22 2.13
  51  0.750  0.250  0.351-  19 2.12  17 2.12  18 2.12   2 2.12  25 2.12
  52  0.000  0.000  0.351-  20 2.12  17 2.12  18 2.12   1 2.12  26 2.12
  53  0.750  0.000  0.651-  31 2.12  24 2.12  23 2.12   8 2.12  21 2.15
  54  0.001  0.251  0.651-   7 2.11  32 2.12  24 2.12  23 2.12  22 2.15
  55  0.750  0.250  0.550-   6 2.11  22 2.11  23 2.12  21 2.12  29 2.12  19 2.13
  56  1.000  0.000  0.550-  24 2.10  30 2.12  22 2.12  21 2.12  20 2.12   5 2.12
  57  0.750  0.500  0.450-  25 2.12  19 2.12  12 2.12  27 2.12  28 2.12  29 2.13
  58  0.000  0.750  0.450-  26 2.12  20 2.12  11 2.12  27 2.12  28 2.12  30 2.13
  59  0.750  0.750  0.351-  27 2.12  17 2.12  25 2.12  26 2.12  10 2.12
  60  0.000  0.500  0.351-  28 2.12  18 2.12  25 2.12  26 2.12   9 2.12
  61  0.750  0.500  0.651-  23 2.12  32 2.12  31 2.12  16 2.12  29 2.15
  62  0.001  0.751  0.651-  15 2.11  24 2.12  32 2.12  31 2.12  30 2.15
  63  0.750  0.750  0.550-  14 2.11  30 2.11  31 2.12  29 2.12  21 2.12  27 2.13
  64  1.000  0.500  0.550-  32 2.10  22 2.12  30 2.12  29 2.12  28 2.12  13 2.12


IMPORTANT INFORMATION: All symmetrisations will be switched off!
NOSYMM: (Re-)initialisation of all symmetry stuff for point group C_1.


----------------------------------------------------------------------------------------

                                     Primitive cell                                     

  volume of cell :    1530.6606

  direct lattice vectors                    reciprocal lattice vectors
     8.467142631  0.000000000  0.000000000     0.118103597  0.000000000  0.000000000
     0.000000000  8.467142631  0.000000000     0.000000000  0.118103597  0.000000000
     0.000000000  0.000000000 21.350356973     0.000000000  0.000000000  0.046837624

  length of vectors
     8.467142631  8.467142631 21.350356973     0.118103597  0.118103597  0.046837624

  position of ions in fractional coordinates (direct lattice)
     0.250000000  0.000000000  0.351282183
     0.500000000  0.250000000  0.351282183
     0.250000000  0.250000000  0.450427394
     0.500000000  0.000000000  0.450427394
     0.250195989  0.000308010  0.550051103
     0.500272872  0.250300984  0.550323828
     0.249770286  0.250475304  0.647954190
     0.499537478  0.000598045  0.649126830
     0.250000000  0.500000000  0.351282183
     0.500000000  0.750000000  0.351282183
     0.250000000  0.750000000  0.450427394
     0.500000000  0.500000000  0.450427394
     0.250193499  0.500310578  0.550065055
     0.500272650  0.750282626  0.550325024
     0.249770538  0.750493375  0.647956872
     0.499535170  0.500596582  0.649134699
     0.750000000  0.000000000  0.351282183
     0.000000000  0.250000000  0.351282183
     0.750000000  0.250000000  0.450427394
     0.000000000  0.000000000  0.450427394
     0.749652039  0.000291244  0.550314905
     0.999722126  0.250314530  0.550057191
     0.750317764  0.250587722  0.649129217
     0.000080038  0.000484824  0.647951289
     0.750000000  0.500000000  0.351282183
     0.000000000  0.750000000  0.351282183
     0.750000000  0.750000000  0.450427394
     0.000000000  0.500000000  0.450427394
     0.749651436  0.500292542  0.550330355
     0.999722625  0.750304691  0.550058517
     0.750318018  0.750608838  0.649131106
     0.000079642  0.500482773  0.647976771
     0.250000000  0.000000000  0.450427394
     0.500000000  0.250000000  0.450427394
     0.250000000  0.250000000  0.351282183
     0.500000000  0.000000000  0.351282183
     0.249307394  0.000563289  0.650517495
     0.499622483  0.250415987  0.650952012
     0.250055575  0.250306265  0.549687401
     0.499973336  0.000276014  0.549996271
     0.250000000  0.500000000  0.450427394
     0.500000000  0.750000000  0.450427394
     0.250000000  0.750000000  0.351282183
     0.500000000  0.500000000  0.351282183
     0.249324710  0.500561501  0.650532976
     0.499622684  0.750422844  0.650955327
     0.250056205  0.750306508  0.549689467
     0.499977433  0.500277285  0.550016107
     0.750000000  0.000000000  0.450427394
     0.000000000  0.250000000  0.450427394
     0.750000000  0.250000000  0.351282183
     0.000000000  0.000000000  0.351282183
     0.750246358  0.000422654  0.650949191
     0.000534344  0.250539981  0.650534290
     0.749951352  0.250280360  0.550004062
     0.999863737  0.000306218  0.549688291
     0.750000000  0.500000000  0.450427394
     0.000000000  0.750000000  0.450427394
     0.750000000  0.750000000  0.351282183
     0.000000000  0.500000000  0.351282183
     0.750228308  0.500420714  0.650968409
     0.000534262  0.750584491  0.650536022
     0.749951053  0.750275177  0.550005687
     0.999860149  0.500306847  0.549695907

  ion indices of the primitive-cell ions
   primitive index   ion index
                 1           1
                 2           2
                 3           3
                 4           4
                 5           5
                 6           6
                 7           7
                 8           8
                 9           9
                10          10
                11          11
                12          12
                13          13
                14          14
                15          15
                16          16
                17          17
                18          18
                19          19
                20          20
                21          21
                22          22
                23          23
                24          24
                25          25
                26          26
                27          27
                28          28
                29          29
                30          30
                31          31
                32          32
                33          33
                34          34
                35          35
                36          36
                37          37
                38          38
                39          39
                40          40
                41          41
                42          42
                43          43
                44          44
                45          45
                46          46
                47          47
                48          48
                49          49
                50          50
                51          51
                52          52
                53          53
                54          54
                55          55
                56          56
                57          57
                58          58
                59          59
                60          60
                61          61
                62          62
                63          63
                64          64

----------------------------------------------------------------------------------------



 KPOINTS: pymatgen v2020.8.13 with grid density = 

Automatic generation of k-mesh.
 Grid dimensions read from file:
 generate k-points for:    2    2    1

 Generating k-lattice:

  Cartesian coordinates                     Fractional coordinates (reciprocal lattice)
     0.059051798  0.000000000  0.000000000     0.500000000  0.000000000  0.000000000
     0.000000000  0.059051798  0.000000000     0.000000000  0.500000000  0.000000000
     0.000000000  0.000000000  0.046837624     0.000000000  0.000000000  1.000000000

  Length of vectors
     0.059051798  0.059051798  0.046837624

  Shift w.r.t. Gamma in fractional coordinates (k-lattice)
     0.000000000  0.000000000  0.000000000

 
 Subroutine IBZKPT returns following result:
 ===========================================
 
 Found      4 irreducible k-points:
 
 Following reciprocal coordinates:
            Coordinates               Weight
  0.000000  0.000000  0.000000      1.000000
  0.500000  0.000000  0.000000      1.000000
  0.000000  0.500000  0.000000      1.000000
  0.500000  0.500000  0.000000      1.000000
 
 Following cartesian coordinates:
            Coordinates               Weight
  0.000000  0.000000  0.000000      1.000000
  0.059052  0.000000  0.000000      1.000000
  0.000000  0.059052  0.000000      1.000000
  0.059052  0.059052  0.000000      1.000000
 


--------------------------------------------------------------------------------------------------------




 Dimension of arrays:
   k-points           NKPTS =      4   k-points in BZ     NKDIM =      4   number of bands    NBANDS=    320
   number of dos      NEDOS =    301   number of ions     NIONS =     64
   non local maximal  LDIM  =      5   non local SUM 2l+1 LMDIM =     13
   total plane-waves  NPLWV = 882000
   max r-space proj   IRMAX =      1   max aug-charges    IRDMAX=  11554
   dimension x,y,z NGX =    70 NGY =   70 NGZ =  180
   dimension x,y,z NGXF=   140 NGYF=  140 NGZF=  360
   support grid    NGXF=   140 NGYF=  140 NGZF=  360
   ions per type =              32  32
   NGX,Y,Z   is equivalent  to a cutoff of  13.74, 13.74, 14.02 a.u.
   NGXF,Y,Z  is equivalent  to a cutoff of  27.49, 27.49, 28.03 a.u.

 SYSTEM =  MgO-rocksalt                            
 POSCAR =  Mg  O                                   

--------------------------------------------------------------------------------------------------------


  energy-cutoff  :      600.00
  volume of cell :     1530.66
      direct lattice vectors                 reciprocal lattice vectors
     8.467142631  0.000000000  0.000000000     0.118103597  0.000000000  0.000000000
     0.000000000  8.467142631  0.000000000     0.000000000  0.118103597  0.000000000
     0.000000000  0.000000000 21.350356973     0.000000000  0.000000000  0.046837624

  length of vectors
     8.467142631  8.467142631 21.350356973     0.118103597  0.118103597  0.046837624



 k-points in units of 2pi/SCALE and weight: pymatgen v2020.8.13 with grid density = 
   0.00000000  0.00000000  0.00000000       0.250
   0.05905180  0.00000000  0.00000000       0.250
   0.00000000  0.05905180  0.00000000       0.250
   0.05905180  0.05905180  0.00000000       0.250

 k-points in reciprocal lattice and weights: pymatgen v2020.8.13 with grid density = 
   0.00000000  0.00000000  0.00000000       0.250
   0.50000000  0.00000000  0.00000000       0.250
   0.00000000  0.50000000  0.00000000       0.250
   0.50000000  0.50000000  0.00000000       0.250

 position of ions in fractional coordinates (direct lattice) 
   0.25000000  0.00000000  0.35128218
   0.50000000  0.25000000  0.35128218
   0.25000000  0.25000000  0.45042739
   0.50000000  0.00000000  0.45042739
   0.25019599  0.00030801  0.55005110
   0.50027287  0.25030098  0.55032383
   0.24977029  0.25047530  0.64795419
   0.49953748  0.00059804  0.64912683
   0.25000000  0.50000000  0.35128218
   0.50000000  0.75000000  0.35128218
   0.25000000  0.75000000  0.45042739
   0.50000000  0.50000000  0.45042739
   0.25019350  0.50031058  0.55006506
   0.50027265  0.75028263  0.55032502
   0.24977054  0.75049337  0.64795687
   0.49953517  0.50059658  0.64913470
   0.75000000  0.00000000  0.35128218
   0.00000000  0.25000000  0.35128218
   0.75000000  0.25000000  0.45042739
   0.00000000  0.00000000  0.45042739
   0.74965204  0.00029124  0.55031491
   0.99972213  0.25031453  0.55005719
   0.75031776  0.25058772  0.64912922
   0.00008004  0.00048482  0.64795129
   0.75000000  0.50000000  0.35128218
   0.00000000  0.75000000  0.35128218
   0.75000000  0.75000000  0.45042739
   0.00000000  0.50000000  0.45042739
   0.74965144  0.50029254  0.55033035
   0.99972262  0.75030469  0.55005852
   0.75031802  0.75060884  0.64913111
   0.00007964  0.50048277  0.64797677
   0.25000000  0.00000000  0.45042739
   0.50000000  0.25000000  0.45042739
   0.25000000  0.25000000  0.35128218
   0.50000000  0.00000000  0.35128218
   0.24930739  0.00056329  0.65051750
   0.49962248  0.25041599  0.65095201
   0.25005557  0.25030627  0.54968740
   0.49997334  0.00027601  0.54999627
   0.25000000  0.50000000  0.45042739
   0.50000000  0.75000000  0.45042739
   0.25000000  0.75000000  0.35128218
   0.50000000  0.50000000  0.35128218
   0.24932471  0.50056150  0.65053298
   0.49962268  0.75042284  0.65095533
   0.25005621  0.75030651  0.54968947
   0.49997743  0.50027729  0.55001611
   0.75000000  0.00000000  0.45042739
   0.00000000  0.25000000  0.45042739
   0.75000000  0.25000000  0.35128218
   0.00000000  0.00000000  0.35128218
   0.75024636  0.00042265  0.65094919
   0.00053434  0.25053998  0.65053429
   0.74995135  0.25028036  0.55000406
   0.99986374  0.00030622  0.54968829
   0.75000000  0.50000000  0.45042739
   0.00000000  0.75000000  0.45042739
   0.75000000  0.75000000  0.35128218
   0.00000000  0.50000000  0.35128218
   0.75022831  0.50042071  0.65096841
   0.00053426  0.75058449  0.65053602
   0.74995105  0.75027518  0.55000569
   0.99986015  0.50030685  0.54969591

 position of ions in cartesian coordinates  (Angst):
   2.11678566  0.00000000  7.50000000
   4.23357132  2.11678566  7.50000000
   2.11678566  2.11678566  9.61678566
   4.23357132  0.00000000  9.61678566
   2.11844512  0.00260796 11.74378740
   4.23588176  2.11933414 11.74961018
   2.11484063  2.12081013 13.83405326
   4.22965507  0.00506373 13.85908954
   2.11678566  4.23357132  7.50000000
   4.23357132  6.35035697  7.50000000
   2.11678566  6.35035697  9.61678566
   4.23357132  4.23357132  9.61678566
   2.11842405  4.23620102 11.74408529
   4.23587988  6.35275000 11.74963571
   2.11484277  6.35453445 13.83411051
   4.22963553  4.23862266 13.85925754
   6.35035697  0.00000000  7.50000000
   0.00000000  2.11678566  7.50000000
   6.35035697  2.11678566  9.61678566
   0.00000000  0.00000000  9.61678566
   6.34741074  0.00246600 11.74941967
   8.46478983  2.11944883 11.74391738
   6.35304753  2.12176198 13.85914051
   0.00067769  0.00410507 13.83399133
   6.35035697  4.23357132  7.50000000
   0.00000000  6.35035697  7.50000000
   6.35035697  6.35035697  9.61678566
   0.00000000  4.23357132  9.61678566
   6.34740563  4.23604831 11.74974952
   8.46479405  6.35293684 11.74394570
   6.35304967  6.35551209 13.85918083
   0.00067434  4.23765902 13.83453536
   2.11678566  0.00000000  9.61678566
   4.23357132  2.11678566  9.61678566
   2.11678566  2.11678566  7.50000000
   4.23357132  0.00000000  7.50000000
   2.11092126  0.00476945 13.88878074
   4.23037482  2.12030788 13.89805783
   2.11725622  2.11937885 11.73602224
   4.23334555  0.00233705 11.74261671
   2.11678566  4.23357132  9.61678566
   4.23357132  6.35035697  9.61678566
   2.11678566  6.35035697  7.50000000
   4.23357132  4.23357132  7.50000000
   2.11106788  4.23832562 13.88911126
   4.23037653  6.35393725 13.89812859
   2.11726156  6.35295222 11.73606634
   4.23338024  4.23591913 11.74304023
   6.35035697  0.00000000  9.61678566
   0.00000000  2.11678566  9.61678566
   6.35035697  2.11678566  7.50000000
   0.00000000  0.00000000  7.50000000
   6.35244292  0.00357867 13.89799759
   0.00452436  2.12135775 13.88913932
   6.34994506  2.11915950 11.74278306
   8.46598887  0.00259280 11.73604125
   6.35035697  4.23357132  9.61678566
   0.00000000  6.35035697  9.61678566
   6.35035697  6.35035697  7.50000000
   0.00000000  4.23357132  7.50000000
   6.35229009  4.23713356 13.89840791
   0.00452367  6.35530594 13.88917630
   6.34994253  6.35268693 11.74281775
   8.46595849  4.23616943 11.73620384



--------------------------------------------------------------------------------------------------------

--------------------------------------- Iteration      FINAL  ---------------------------------------


--------------------OUTCAR has been truncated-------------------------


--------------------OUTCAR has been truncated-------------------------


--------------------OUTCAR has been truncated-------------------------


--------------------OUTCAR has been truncated-------------------------


--------------------OUTCAR has been truncated-------------------------


--------------------OUTCAR has been truncated-------------------------


--------------------OUTCAR has been truncated-------------------------


--------------------OUTCAR has been truncated-------------------------


--------------------OUTCAR has been truncated-------------------------


--------------------OUTCAR has been truncated-------------------------


  FORCE on cell =-STRESS in cart. coord.  units (eV):
  Direction    XX          YY          ZZ          XY          YZ          ZX
  --------------------------------------------------------------------------------------
  Alpha Z   869.06037   869.06037   869.06037
  Ewald  160153.57307160153.80587************     0.00002     1.59424    -0.23162
  Hartree170200.06052170200.24209************    -0.00000     0.94990    -0.13597
  E(xc)   -2521.61044 -2521.61018 -2524.17970    -0.00000     0.00446    -0.00063
  Local  ************************340509.75529    -0.00001    -2.57185     0.37063
  n-local -2814.09865 -2814.09780 -2833.13046    -0.00001     0.05727    -0.00811
  augment  1077.82860  1077.82898  1069.09657     0.00010     0.01375    -0.00179
  Kinetic  7322.46047  7322.45583  7358.07292     0.00012    -0.33003     0.04778
  Fock        0.00000     0.00000     0.00000     0.00000     0.00000     0.00000
  -------------------------------------------------------------------------------------
  Total     -14.44369   -14.45057     9.62115     0.00022    -0.28226     0.04028
  in kB     -15.11854   -15.12574    10.07068     0.00023    -0.29544     0.04216
  external pressure =       -6.72 kB  Pullay stress =        0.00 kB


 VOLUME and BASIS-vectors are now :
 -----------------------------------------------------------------------------
  energy-cutoff  :      600.00
  volume of cell :     1530.66
      direct lattice vectors                 reciprocal lattice vectors
     8.467142631  0.000000000  0.000000000     0.118103597  0.000000000  0.000000000
     0.000000000  8.467142631  0.000000000     0.000000000  0.118103597  0.000000000
     0.000000000  0.000000000 21.350356973     0.000000000  0.000000000  0.046837624

  length of vectors
     8.467142631  8.467142631 21.350356973     0.118103597  0.118103597  0.046837624


 FORCES acting on ions:
    Electron-Ion                     Ewald-Force                    Non-Local-Force
 -----------------------------------------------------------------------------------------------
   -.142E+00 0.158E-02 0.205E+04   0.144E+00 -.903E-03 -.205E+04   -.161E-02 -.549E-03 -.644E+01
   -.141E+00 -.525E-02 0.205E+04   0.144E+00 0.599E-02 -.205E+04   -.183E-02 -.595E-03 -.645E+01
   -.624E+00 -.442E-03 0.680E+03   0.645E+00 0.134E-01 -.681E+03   -.148E-01 -.844E-02 0.410E+00
   -.627E+00 0.257E-01 0.679E+03   0.643E+00 -.149E-01 -.679E+03   -.114E-01 -.720E-02 0.496E+00
   -.104E+01 0.261E-01 -.683E+03   0.112E+01 -.295E-01 0.683E+03   -.804E-01 0.239E-02 -.277E+00
   -.103E+01 -.305E-01 -.687E+03   0.111E+01 0.317E-01 0.687E+03   -.754E-01 -.222E-02 -.261E+00
   -.130E+01 -.304E+00 -.203E+04   0.115E+01 0.275E+00 0.203E+04   0.137E+00 0.297E-01 0.544E+01
   -.932E+00 0.430E+00 -.204E+04   0.854E+00 -.403E+00 0.204E+04   0.833E-01 -.383E-01 0.555E+01
   -.143E+00 0.401E-03 0.205E+04   0.145E+00 0.294E-03 -.205E+04   -.165E-02 -.564E-03 -.644E+01
   -.141E+00 0.705E-02 0.205E+04   0.144E+00 -.655E-02 -.205E+04   -.183E-02 -.406E-03 -.645E+01
   -.623E+00 0.547E-01 0.680E+03   0.644E+00 -.431E-01 -.681E+03   -.148E-01 -.749E-02 0.411E+00
   -.624E+00 0.212E-01 0.679E+03   0.640E+00 -.101E-01 -.679E+03   -.118E-01 -.731E-02 0.503E+00
   -.100E+01 0.255E-01 -.683E+03   0.108E+01 -.288E-01 0.683E+03   -.793E-01 0.201E-02 -.278E+00
   -.103E+01 -.392E-01 -.687E+03   0.111E+01 0.405E-01 0.687E+03   -.754E-01 -.689E-03 -.261E+00
   -.130E+01 -.246E+00 -.203E+04   0.115E+01 0.224E+00 0.203E+04   0.137E+00 0.229E-01 0.544E+01
   -.934E+00 0.428E+00 -.204E+04   0.857E+00 -.401E+00 0.204E+04   0.832E-01 -.379E-01 0.555E+01
   0.142E+00 0.150E-02 0.205E+04   -.144E+00 -.880E-03 -.205E+04   0.197E-02 -.503E-03 -.645E+01
   0.142E+00 -.476E-02 0.205E+04   -.144E+00 0.552E-02 -.205E+04   0.176E-02 -.612E-03 -.644E+01
   0.624E+00 -.166E-02 0.679E+03   -.643E+00 0.138E-01 -.679E+03   0.137E-01 -.810E-02 0.499E+00
   0.612E+00 0.296E-01 0.680E+03   -.636E+00 -.174E-01 -.681E+03   0.166E-01 -.793E-02 0.411E+00
   0.107E+01 -.357E-01 -.687E+03   -.114E+01 0.367E-01 0.687E+03   0.747E-01 -.106E-02 -.259E+00
   0.101E+01 -.162E-01 -.683E+03   -.109E+01 0.132E-01 0.683E+03   0.808E-01 0.155E-02 -.275E+00
   0.955E+00 0.396E+00 -.204E+04   -.874E+00 -.372E+00 0.204E+04   -.857E-01 -.344E-01 0.555E+01
   0.128E+01 -.273E+00 -.203E+04   -.113E+01 0.248E+00 0.203E+04   -.138E+00 0.260E-01 0.544E+01
   0.142E+00 0.276E-03 0.205E+04   -.145E+00 0.349E-03 -.205E+04   0.201E-02 -.509E-03 -.645E+01
   0.142E+00 0.677E-02 0.205E+04   -.144E+00 -.615E-02 -.205E+04   0.175E-02 -.508E-03 -.644E+01
   0.623E+00 0.496E-01 0.679E+03   -.643E+00 -.398E-01 -.679E+03   0.137E-01 -.646E-02 0.500E+00
   0.611E+00 0.242E-01 0.680E+03   -.635E+00 -.119E-01 -.681E+03   0.170E-01 -.800E-02 0.413E+00
   0.102E+01 -.398E-01 -.687E+03   -.110E+01 0.410E-01 0.687E+03   0.743E-01 -.135E-02 -.259E+00
   0.101E+01 0.699E-01 -.683E+03   -.109E+01 -.737E-01 0.683E+03   0.809E-01 0.282E-02 -.275E+00
   0.955E+00 0.455E+00 -.204E+04   -.874E+00 -.426E+00 0.204E+04   -.857E-01 -.408E-01 0.555E+01
   0.128E+01 -.277E+00 -.203E+04   -.113E+01 0.252E+00 0.203E+04   -.137E+00 0.266E-01 0.544E+01
   -.438E+00 0.282E-01 0.510E+03   0.430E+00 -.437E-01 -.510E+03   0.107E-01 0.207E-01 -.529E-01
   -.435E+00 0.610E-02 0.508E+03   0.421E+00 -.211E-01 -.508E+03   0.196E-01 0.201E-01 -.104E+00
   -.107E+00 -.520E-02 0.154E+04   0.110E+00 0.481E-02 -.155E+04   -.334E-02 0.587E-03 0.356E+01
   -.106E+00 -.102E-03 0.154E+04   0.109E+00 -.311E-03 -.155E+04   -.365E-02 0.609E-03 0.356E+01
   -.104E+01 0.182E+00 -.155E+04   0.101E+01 -.182E+00 0.155E+04   0.892E-01 -.914E-02 -.525E+01
   -.893E+00 -.364E+00 -.155E+04   0.930E+00 0.401E+00 0.156E+04   -.127E-01 -.318E-01 -.508E+01
   -.824E+00 -.620E-01 -.505E+03   0.812E+00 0.673E-01 0.504E+03   0.128E-01 -.623E-02 0.443E+00
   -.805E+00 0.213E-01 -.510E+03   0.784E+00 -.185E-01 0.510E+03   0.246E-01 -.300E-02 0.223E+00
   -.442E+00 0.246E-01 0.510E+03   0.434E+00 -.404E-01 -.510E+03   0.116E-01 0.211E-01 -.547E-01
   -.435E+00 0.448E-01 0.508E+03   0.421E+00 -.578E-01 -.508E+03   0.195E-01 0.172E-01 -.104E+00
   -.107E+00 0.399E-02 0.154E+04   0.110E+00 -.453E-02 -.155E+04   -.335E-02 0.793E-03 0.356E+01
   -.106E+00 -.971E-03 0.154E+04   0.109E+00 0.568E-03 -.155E+04   -.372E-02 0.595E-03 0.356E+01
   -.973E+00 0.182E+00 -.155E+04   0.943E+00 -.181E+00 0.156E+04   0.850E-01 -.923E-02 -.526E+01
   -.894E+00 -.386E+00 -.155E+04   0.931E+00 0.420E+00 0.156E+04   -.128E-01 -.276E-01 -.508E+01
   -.823E+00 -.118E-01 -.505E+03   0.811E+00 0.194E-01 0.504E+03   0.127E-01 -.949E-02 0.443E+00
   -.793E+00 0.189E-01 -.510E+03   0.772E+00 -.164E-01 0.510E+03   0.243E-01 -.266E-02 0.221E+00
   0.430E+00 0.271E-01 0.508E+03   -.412E+00 -.411E-01 -.508E+03   -.240E-01 0.186E-01 -.102E+00
   0.431E+00 0.925E-02 0.510E+03   -.418E+00 -.252E-01 -.510E+03   -.168E-01 0.213E-01 -.537E-01
   0.107E+00 -.499E-02 0.154E+04   -.109E+00 0.470E-02 -.155E+04   0.355E-02 0.428E-03 0.356E+01
   0.107E+00 -.149E-03 0.154E+04   -.109E+00 -.324E-03 -.155E+04   0.309E-02 0.691E-03 0.356E+01
   0.959E+00 -.372E+00 -.155E+04   -.999E+00 0.407E+00 0.156E+04   0.145E-01 -.300E-01 -.508E+01
   0.995E+00 0.123E+00 -.155E+04   -.968E+00 -.123E+00 0.156E+04   -.817E-01 -.673E-02 -.526E+01
   0.808E+00 0.424E-02 -.510E+03   -.789E+00 -.252E-02 0.510E+03   -.230E-01 -.182E-02 0.222E+00
   0.820E+00 -.360E-01 -.505E+03   -.808E+00 0.427E-01 0.504E+03   -.132E-01 -.810E-02 0.440E+00
   0.432E+00 0.231E-01 0.508E+03   -.414E+00 -.373E-01 -.508E+03   -.249E-01 0.188E-01 -.105E+00
   0.431E+00 0.439E-01 0.510E+03   -.419E+00 -.593E-01 -.510E+03   -.167E-01 0.205E-01 -.538E-01
   0.107E+00 0.393E-02 0.154E+04   -.109E+00 -.447E-02 -.155E+04   0.356E-02 0.776E-03 0.356E+01
   0.107E+00 -.108E-02 0.154E+04   -.109E+00 0.620E-03 -.155E+04   0.316E-02 0.681E-03 0.356E+01
   0.892E+00 -.374E+00 -.155E+04   -.934E+00 0.410E+00 0.156E+04   0.192E-01 -.302E-01 -.508E+01
   0.995E+00 0.243E+00 -.155E+04   -.968E+00 -.243E+00 0.156E+04   -.817E-01 -.110E-01 -.526E+01
   0.807E+00 0.403E-01 -.510E+03   -.788E+00 -.368E-01 0.510E+03   -.230E-01 -.384E-02 0.222E+00
   0.816E+00 -.397E-01 -.505E+03   -.804E+00 0.460E-01 0.504E+03   -.123E-01 -.783E-02 0.440E+00
 -----------------------------------------------------------------------------------------------
   -.542E-02 0.153E+00 0.170E+02   0.273E-12 -.228E-12 0.250E-11   0.411E-02 -.143E+00 -.170E+02


 POSITION                                       TOTAL-FORCE (eV/Angst)
 -----------------------------------------------------------------------------------
      2.11679      0.00000      7.50000         0.000554     -0.000023      0.199008
      4.23357      2.11679      7.50000         0.000621     -0.000015      0.200476
      2.11679      2.11679      9.61679         0.006169      0.004296      0.025125
      4.23357      0.00000      9.61679         0.004321      0.003420      0.038312
      2.11845      0.00261     11.74379         0.000933     -0.001205     -0.002059
      4.23588      2.11933     11.74961        -0.000489     -0.001158     -0.007337
      2.11484      2.12081     13.83405        -0.010959      0.000854      0.279422
      4.22966      0.00506     13.85909         0.005422     -0.011147      0.119201
      2.11679      4.23357      7.50000         0.000559     -0.000022      0.199026
      4.23357      6.35036      7.50000         0.000618     -0.000066      0.200480
      2.11679      6.35036      9.61679         0.006182      0.003865      0.025162
      4.23357      4.23357      9.61679         0.004433      0.003469      0.038751
      2.11842      4.23620     11.74409         0.000719     -0.001370     -0.003625
      4.23588      6.35275     11.74964        -0.000442      0.000494     -0.007376
      2.11484      6.35453     13.83411        -0.010974      0.000959      0.279254
      4.22964      4.23862     13.85926         0.005720     -0.011099      0.120342
      6.35036      0.00000      7.50000        -0.000616     -0.000040      0.200408
      0.00000      2.11679      7.50000        -0.000540     -0.000005      0.199004
      6.35036      2.11679      9.61679        -0.005409      0.003793      0.038339
      0.00000      0.00000      9.61679        -0.007066      0.004075      0.025024
      6.34741      0.00247     11.74942         0.000183     -0.000268     -0.005925
      8.46479      2.11945     11.74392        -0.000632     -0.001530     -0.002371
      6.35305      2.12176     13.85914        -0.004481     -0.010995      0.120112
      0.00068      0.00411     13.83399         0.011950      0.000947      0.279960
      6.35036      4.23357      7.50000        -0.000623     -0.000038      0.200498
      0.00000      6.35036      7.50000        -0.000534     -0.000045      0.199003
      6.35036      6.35036      9.61679        -0.005415      0.003114      0.038406
      0.00000      4.23357      9.61679        -0.007208      0.004107      0.025439
      6.34741      4.23605     11.74975         0.000645     -0.000306     -0.007584
      8.46479      6.35294     11.74395        -0.000689     -0.001126     -0.002446
      6.35305      6.35551     13.85918        -0.004489     -0.011367      0.120054
      0.00067      4.23766     13.83454         0.011829      0.000972      0.277270
      2.11679      0.00000      9.61679         0.002878      0.005064      0.058078
      4.23357      2.11679      9.61679         0.005248      0.004951      0.071868
      2.11679      2.11679      7.50000        -0.000942      0.000039     -0.518784
      4.23357      0.00000      7.50000        -0.001034      0.000044     -0.519571
      2.11092      0.00477     13.88878         0.057520     -0.009097      0.026730
      4.23037      2.12031     13.89806         0.024384      0.005287      0.048531
      2.11726      2.11938     11.73602         0.000733     -0.001081     -0.011268
      4.23335      0.00234     11.74262         0.003901     -0.000325     -0.005132
      2.11679      4.23357      9.61679         0.003153      0.005167      0.059073
      4.23357      6.35036      9.61679         0.005237      0.004088      0.071938
      2.11679      6.35036      7.50000        -0.000940      0.000099     -0.518783
      4.23357      4.23357      7.50000        -0.001053      0.000040     -0.519616
      2.11107      4.23833     13.88911         0.054839     -0.009017      0.026051
      4.23038      6.35394     13.89813         0.024381      0.006129      0.048279
      2.11726      6.35295     11.73607         0.000699     -0.002131     -0.011532
      4.23338      4.23592     11.74304         0.003382     -0.000313     -0.008661
      6.35036      0.00000      9.61679        -0.006301      0.004504      0.071440
      0.00000      2.11679      9.61679        -0.004403      0.005241      0.058512
      6.35036      2.11679      7.50000         0.001047     -0.000013     -0.519587
      0.00000      0.00000      7.50000         0.000905      0.000066     -0.518750
      6.35244      0.00358     13.89800        -0.025225      0.005479      0.048331
      0.00452      2.12136     13.88914        -0.054445     -0.006737      0.025325
      6.34995      2.11916     11.74278        -0.003656     -0.000254     -0.006470
      8.46599      0.00259     11.73604        -0.000660     -0.001633     -0.012469
      6.35036      4.23357      9.61679        -0.006585      0.004570      0.072214
      0.00000      6.35036      9.61679        -0.004382      0.004993      0.058612
      6.35036      6.35036      7.50000         0.001044      0.000088     -0.519588
      0.00000      4.23357      7.50000         0.000928      0.000064     -0.518770
      6.35229      4.23713     13.89841        -0.022594      0.005536      0.047306
      0.00452      6.35531     13.88918        -0.054430     -0.011258      0.025275
      6.34994      6.35269     11.74282        -0.003641     -0.000540     -0.006647
      8.46596      4.23617     11.73620        -0.000281     -0.001594     -0.011285
 -----------------------------------------------------------------------------------
    total drift:                               -0.001317      0.009722      0.061283


--------------------------------------------------------------------------------------------------------



  FREE ENERGIE OF THE ION-ELECTRON SYSTEM (eV)
  ---------------------------------------------------
  free  energy   TOTEN  =      -227.41796127 eV

  energy  without entropy=     -227.41796127  energy(sigma->0) =     -227.41796127



--------------------------------------------------------------------------------------------------------


    POTLOK:  cpu time      0.6867: real time      0.6867


--------------------------------------------------------------------------------------------------------


     LOOP+:  cpu time    115.9617: real time    122.1877
    4ORBIT:  cpu time      0.0000: real time      0.0000

 total amount of memory used by VASP MPI-rank0    60692. kBytes
=======================================================================

   base      :      30000. kBytes
   nonl-proj :      11997. kBytes
   fftplans  :       4925. kBytes
   grid      :       7379. kBytes
   one-center:         64. kBytes
   wavefun   :       6327. kBytes

  
  
 General timing and accounting informations for this job:
 ========================================================
  
                  Total CPU time used (sec):      152.816
                            User time (sec):      151.485
                          System time (sec):        1.332
                         Elapsed time (sec):      172.287
  
                   Maximum memory used (kb):      375384.
                   Average memory used (kb):          N/A
  
                          Minor page faults:        80635
                          Major page faults:          806
                 Voluntary context switches:        10781
