 vasp.6.3.0 20Jan22 (build Mar 11 2022 13:48:16) complex                        
  
 executed on             LinuxIFC date 2024.01.22  18:41:24
 running on  304 total cores
 distrk:  each k-point on  304 cores,    1 groups
 distr:  one band on NCORE=   2 cores,  152 groups


--------------------------------------------------------------------------------------------------------


 INCAR:
   SYSTEM = TiO2
   ISMEAR = 0
   SIGMA = 0.05
   EDIFF = 1E-5
   ALGO = ALL
   ISTART = 0
   IBRION = -1
   NSW = 0
   ISYM = 0
   ISIF = 2
   EDIFFG = -0.01
   DIPOL = 0.5 0.5 0.5
   IDIPOL = 3
   LDIPOL = .TRUE.
   METAGGA = R2SCAN
   LUSE_VDW = .TRUE.
   BPARAM = 11.95
   CPARAM = 0.0093
   LASPH = .TRUE.
   ENCUT = 600
   PREC = Accurate
   LASPH = .TRUE.
   LREAL = .FALSE.
   ISPIN = 1
   NELM = 200
   NELMIN = 8
   NCORE = 2
   KPAR = 1
   LWAVE = .FALSE.
   LCHARG = .FALSE.

 POTCAR:    PAW_PBE N 08Apr2002                   
 POTCAR:    PAW_PBE H 15Jun2001                   
 -----------------------------------------------------------------------------
|                                                                             |
|           W    W    AA    RRRRR   N    N  II  N    N   GGGG   !!!           |
|           W    W   A  A   R    R  NN   N  II  NN   N  G    G  !!!           |
|           W    W  A    A  R    R  N N  N  II  N N  N  G       !!!           |
|           W WW W  AAAAAA  RRRRR   N  N N  II  N  N N  G  GGG   !            |
|           WW  WW  A    A  R   R   N   NN  II  N   NN  G    G                |
|           W    W  A    A  R    R  N    N  II  N    N   GGGG   !!!           |
|                                                                             |
|     For optimal performance we recommend to set                             |
|       NCORE = 2 up to number-of-cores-per-socket                            |
|     NCORE specifies how many cores store one orbital (NPAR=cpu/NCORE).      |
|     This setting can greatly improve the performance of VASP for DFT.       |
|     The default, NCORE=1 might be grossly inefficient on modern             |
|     multi-core architectures or massively parallel machines. Do your        |
|     own testing! More info at https://www.vasp.at/wiki/index.php/NCORE      |
|     Unfortunately you need to use the default for GW and RPA                |
|     calculations (for HF NCORE is supported but not extensively tested      |
|     yet).                                                                   |
|                                                                             |
 -----------------------------------------------------------------------------

 -----------------------------------------------------------------------------
|                                                                             |
|               ----> ADVICE to this user running VASP <----                  |
|                                                                             |
|     You have switched on vdW-DFT.                                           |
|     This routine was written and supplied by Jiri Klimes. We recommend      |
|     that you carefully read and cite the following publications:            |
|       J. Klimes, D.R. Bowler, A. Michelides                                 |
|          J. Phys.: Cond Matt. 22 022201 (2010)                              |
|       J. Klimes, D.R. Bowler, A. Michelides                                 |
|          Phys. Rev. B. 83, 195131 (2011)                                    |
|     and references therein.                                                 |
|                                                                             |
 -----------------------------------------------------------------------------

 POTCAR:    PAW_PBE N 08Apr2002                   
   SHA256 =  e053789ff3a61a86a1b75d8a110fcc91f86041011e7b0817c7c99e4e8a6349d7 N/POTCAR              
   COPYR  = (c) Copyright 08Apr2002 Georg Kresse                                                    
   COPYR  = This file is part of the software VASP. Any use, copying, and all other rights are regul
   COPYR  = If you do not have a valid VASP license, you may not use, copy or distribute this file. 
   VRHFIN =N: s2p3                                                                                  
   LEXCH  = PE                                                                                      
   EATOM  =   264.5486 eV,   19.4438 Ry                                                             
                                                                                                    
   TITEL  = PAW_PBE N 08Apr2002                                                                     
   LULTRA =        F    use ultrasoft PP ?                                                          
   IUNSCR =        1    unscreen: 0-lin 1-nonlin 2-no                                               
   RPACOR =    1.200    partial core radius                                                         
   POMASS =   14.001; ZVAL   =    5.000    mass and valenz                                          
   RCORE  =    1.500    outmost cutoff radius                                                       
   RWIGS  =    1.400; RWIGS  =    0.741    wigner-seitz radius (au A)                               
   ENMAX  =  400.000; ENMIN  =  300.000 eV                                                          
   ICORE  =        2    local potential                                                             
   LCOR   =        T    correct aug charges                                                         
   LPAW   =        T    paw PP                                                                      
   EAUG   =  627.112                                                                                
   DEXC   =    0.000                                                                                
   RMAX   =    1.529    core radius for proj-oper                                                   
   RAUG   =    1.300    factor for augmentation sphere                                              
   RDEP   =    1.514    radius for radial grids                                                     
   RDEPT  =    1.338    core radius for aug-charge                                                  
                                                                                                    
   Atomic configuration                                                                             
    4 entries                                                                                       
     n  l   j            E        occ.                                                              
     1  0  0.50      -384.7179   2.0000                                                             
     2  0  0.50       -18.5828   2.0000                                                             
     2  1  0.50        -7.0898   3.0000                                                             
     3  2  1.50        -6.8029   0.0000                                                             
   Description                                                                                      
     l       E           TYP  RCUT    TYP  RCUT                                                     
     0    -18.5828119     23  1.200                                                                 
     0    -13.5018863     23  1.200                                                                 
     1     -7.0897853     23  1.500                                                                 
     1      9.5240782     23  1.500                                                                 
     2     -6.8029130      7  1.500                                                                 
  local pseudopotential read in
  partial core-charges read in
  partial kinetic energy density read in
  atomic valenz-charges read in
  non local Contribution for L=           0  read in
    real space projection operators read in
  non local Contribution for L=           0  read in
    real space projection operators read in
  non local Contribution for L=           1  read in
    real space projection operators read in
  non local Contribution for L=           1  read in
    real space projection operators read in
    PAW grid and wavefunctions read in
 
   number of l-projection  operators is LMAX  =           4
   number of lm-projection operators is LMMAX =           8
 
 POTCAR:    PAW_PBE H 15Jun2001                   
   SHA256 =  030f79b5d3ab3cf0e668861823c8fb652ff669f3e15e46930bd03bfd63a607b6 H/POTCAR              
   COPYR  = (c) Copyright 15Jun2001 Georg Kresse                                                    
   COPYR  = This file is part of the software VASP. Any use, copying, and all other rights are regul
   COPYR  = If you do not have a valid VASP license, you may not use, copy or distribute this file. 
   VRHFIN =H: ultrasoft test                                                                        
   LEXCH  = PE                                                                                      
   EATOM  =    12.4884 eV,    0.9179 Ry                                                             
                                                                                                    
   TITEL  = PAW_PBE H 15Jun2001                                                                     
   LULTRA =        F    use ultrasoft PP ?                                                          
   IUNSCR =        0    unscreen: 0-lin 1-nonlin 2-no                                               
   RPACOR =    0.000    partial core radius                                                         
   POMASS =    1.000; ZVAL   =    1.000    mass and valenz                                          
   RCORE  =    1.100    outmost cutoff radius                                                       
   RWIGS  =    0.700; RWIGS  =    0.370    wigner-seitz radius (au A)                               
   ENMAX  =  250.000; ENMIN  =  200.000 eV                                                          
   RCLOC  =    0.701    cutoff for local pot                                                        
   LCOR   =        T    correct aug charges                                                         
   LPAW   =        T    paw PP                                                                      
   EAUG   =  400.000                                                                                
   RMAX   =    1.123    core radius for proj-oper                                                   
   RAUG   =    1.200    factor for augmentation sphere                                              
   RDEP   =    1.112    radius for radial grids                                                     
   RDEPT  =    0.926    core radius for aug-charge                                                  
                                                                                                    
   Atomic configuration                                                                             
    2 entries                                                                                       
     n  l   j            E        occ.                                                              
     1  0  0.50        -6.4927   1.0000                                                             
     2  1  0.50        -3.4015   0.0000                                                             
   Description                                                                                      
     l       E           TYP  RCUT    TYP  RCUT                                                     
     0     -6.4927494     23  1.100                                                                 
     0      6.8029130     23  1.100                                                                 
     1     -4.0817478     23  1.100                                                                 
  local pseudopotential read in
  atomic valenz-charges read in
  non local Contribution for L=           0  read in
    real space projection operators read in
  non local Contribution for L=           0  read in
    real space projection operators read in
  non local Contribution for L=           1  read in
    real space projection operators read in
    PAW grid and wavefunctions read in
 
   number of l-projection  operators is LMAX  =           3
   number of lm-projection operators is LMMAX =           5
 
  PAW_PBE N 08Apr2002                   :
 energy of atom  1       EATOM= -264.5486
 kinetic energy error for atom=    0.0103 (will be added to EATOM!!)
  PAW_PBE H 15Jun2001                   :
 energy of atom  2       EATOM=  -12.4884
 kinetic energy error for atom=    0.0004 (will be added to EATOM!!)
 
 
 POSCAR:  N  H
  positions in direct lattice
  No initial velocities read in

 METAGGA = R2SCA    LMAXTAU =  6    LMIXTAU =  F

 exchange correlation table for  LEXCH =        8
   RHO(1)=    0.500       N(1)  =     2000
   RHO(2)=  100.500       N(2)  =     4000
 


--------------------------------------------------------------------------------------------------------


 ion  position               nearest neighbor table
   1  0.611  0.500  0.777-   2 1.02   4 1.02   3 1.02
   2  0.549  0.500  0.805-   1 1.02
   3  0.670  0.428  0.779-   1 1.02
   4  0.670  0.572  0.779-   1 1.02
 

IMPORTANT INFORMATION: All symmetrisations will be switched off!
NOSYMM: (Re-)initialisation of all symmetry stuff for point group C_1.


----------------------------------------------------------------------------------------

                                     Primitive cell                                     

  volume of cell :    3249.2297

  direct lattice vectors                    reciprocal lattice vectors
    10.254981746  0.000000000  0.000000000     0.097513582 -0.000000000  0.000000000
     0.000000000 11.356579900  0.000000000     0.000000000  0.088054679  0.000000000
     0.000000000  0.000000000 27.899598656     0.000000000  0.000000000  0.035842810

  length of vectors
    10.254981746 11.356579900 27.899598656     0.097513582  0.088054679  0.035842810

  position of ions in fractional coordinates (direct lattice)
     0.611424624  0.500005292  0.776898778
     0.548751737  0.499999705  0.805091176
     0.670479470  0.428115312  0.779417208
     0.670475743  0.571879728  0.779416941

  ion indices of the primitive-cell ions
   primitive index   ion index
                 1           1
                 2           2
                 3           3
                 4           4

----------------------------------------------------------------------------------------

 
 
 KPOINTS: pymatgen v2020.8.13 with grid density = 

Automatic generation of k-mesh.
 Grid dimensions read from file:
 generate k-points for:    3    3    1

 Generating k-lattice:

  Cartesian coordinates                     Fractional coordinates (reciprocal lattice)
     0.032504527 -0.000000000  0.000000000     0.333333333 -0.000000000  0.000000000
     0.000000000  0.029351560  0.000000000     0.000000000  0.333333333  0.000000000
     0.000000000  0.000000000  0.035842810     0.000000000  0.000000000  1.000000000

  Length of vectors
     0.032504527  0.029351560  0.035842810

  Shift w.r.t. Gamma in fractional coordinates (k-lattice)
     0.000000000  0.000000000  0.000000000

 
 Subroutine IBZKPT returns following result:
 ===========================================
 
 Found      5 irreducible k-points:
 
 Following reciprocal coordinates:
            Coordinates               Weight
  0.000000  0.000000  0.000000      1.000000
  0.333333 -0.000000  0.000000      2.000000
  0.000000  0.333333  0.000000      2.000000
  0.333333  0.333333  0.000000      2.000000
  0.333333 -0.333333  0.000000      2.000000
 
 Following cartesian coordinates:
            Coordinates               Weight
  0.000000  0.000000  0.000000      1.000000
  0.032505 -0.000000  0.000000      2.000000
  0.000000  0.029352  0.000000      2.000000
  0.032505  0.029352  0.000000      2.000000
  0.032505 -0.029352  0.000000      2.000000
 


--------------------------------------------------------------------------------------------------------




 Dimension of arrays:
   k-points           NKPTS =      5   k-points in BZ     NKDIM =      5   number of bands    NBANDS=    152
   number of dos      NEDOS =    301   number of ions     NIONS =      4
   non local maximal  LDIM  =      4   non local SUM 2l+1 LMDIM =      8
   total plane-waves  NPLWV = ******
   max r-space proj   IRMAX =      1   max aug-charges    IRDMAX=   7040
   dimension x,y,z NGX =    84 NGY =   96 NGZ =  224
   dimension x,y,z NGXF=   168 NGYF=  192 NGZF=  448
   support grid    NGXF=   168 NGYF=  192 NGZF=  448
   ions per type =               1   3
   NGX,Y,Z   is equivalent  to a cutoff of  13.62, 14.05, 13.35 a.u.
   NGXF,Y,Z  is equivalent  to a cutoff of  27.23, 28.11, 26.70 a.u.

 SYSTEM =  TiO2                                    
 POSCAR =   N  H                                   

--------------------------------------------------------------------------------------------------------


  energy-cutoff  :      600.00
  volume of cell :     3249.23
      direct lattice vectors                 reciprocal lattice vectors
    10.254981746  0.000000000  0.000000000     0.097513582 -0.000000000  0.000000000
     0.000000000 11.356579900  0.000000000     0.000000000  0.088054679  0.000000000
     0.000000000  0.000000000 27.899598656     0.000000000  0.000000000  0.035842810

  length of vectors
    10.254981746 11.356579900 27.899598656     0.097513582  0.088054679  0.035842810


 
 k-points in units of 2pi/SCALE and weight: pymatgen v2020.8.13 with grid density = 
   0.00000000  0.00000000  0.00000000       0.111
   0.03250453 -0.00000000  0.00000000       0.222
   0.00000000  0.02935156  0.00000000       0.222
   0.03250453  0.02935156  0.00000000       0.222
   0.03250453 -0.02935156  0.00000000       0.222
 
 k-points in reciprocal lattice and weights: pymatgen v2020.8.13 with grid density = 
   0.00000000  0.00000000  0.00000000       0.111
   0.33333333 -0.00000000  0.00000000       0.222
   0.00000000  0.33333333  0.00000000       0.222
   0.33333333  0.33333333  0.00000000       0.222
   0.33333333 -0.33333333  0.00000000       0.222
 
 position of ions in fractional coordinates (direct lattice) 
   0.61142462  0.50000529  0.77689878
   0.54875174  0.49999971  0.80509118
   0.67047947  0.42811531  0.77941721
   0.67047574  0.57187973  0.77941694
 
 position of ions in cartesian coordinates  (Angst):
   6.27014836  5.67835005 21.67516409
   5.62743904  5.67828660 22.46172068
   6.87575472  4.86192575 21.74542729
   6.87571651  6.49459783 21.74541984
 


--------------------------------------------------------------------------------------------------------

--------------------------------------- Iteration      FINAL  ---------------------------------------


--------------------OUTCAR has been truncated-------------------------


--------------------OUTCAR has been truncated-------------------------


--------------------OUTCAR has been truncated-------------------------


--------------------OUTCAR has been truncated-------------------------


--------------------OUTCAR has been truncated-------------------------


--------------------OUTCAR has been truncated-------------------------


--------------------OUTCAR has been truncated-------------------------


--------------------OUTCAR has been truncated-------------------------


--------------------OUTCAR has been truncated-------------------------


--------------------OUTCAR has been truncated-------------------------


  FORCE on cell =-STRESS in cart. coord.  units (eV):
  Direction    XX          YY          ZZ          XY          YZ          ZX
  --------------------------------------------------------------------------------------
  Alpha Z     0.07105     0.07105     0.07105
  Ewald     126.15256   130.86647   -68.83891     0.00956    -0.00290   -34.38131
  Hartree   202.03321   194.17660    42.45528    -0.00001    -0.00092    -6.41174
  E(xc)     -31.65597   -31.82646   -31.26283     0.00001     0.00002     0.33180
  Local    -401.54914  -393.60208   -58.92599    -0.00549     0.00335    30.75374
  n-local   -22.14017   -21.55792   -23.24421    -0.00058    -0.00008    -0.96175
  augment     1.32352     1.17675     1.66472    -0.00003     0.00001     0.28662
  Kinetic   125.32425   120.42375   138.04292    -0.00024     0.00115    10.52178
  Fock        0.00000     0.00000     0.00000     0.00000     0.00000     0.00000
  -------------------------------------------------------------------------------------
  Total      -0.44070    -0.27183    -0.03796     0.00321     0.00064     0.13914
  in kB      -0.21731    -0.13404    -0.01872     0.00158     0.00032     0.06861
  external pressure =       -0.12 kB  Pullay stress =        0.00 kB


 VOLUME and BASIS-vectors are now :
 -----------------------------------------------------------------------------
  energy-cutoff  :      600.00
  volume of cell :     3249.23
      direct lattice vectors                 reciprocal lattice vectors
    10.254981746  0.000000000  0.000000000     0.097513582 -0.000000000  0.000000000
     0.000000000 11.356579900  0.000000000     0.000000000  0.088054679  0.000000000
     0.000000000  0.000000000 27.899598656     0.000000000  0.000000000  0.035842810

  length of vectors
    10.254981746 11.356579900 27.899598656     0.097513582  0.088054679  0.035842810


 FORCES acting on ions:
    Electron-Ion                     Ewald-Force                    Non-Local-Force
 -----------------------------------------------------------------------------------------------
   0.236E+02 0.615E-02 0.388E+02   -.381E+02 -.106E-01 -.638E+02   0.147E+02 -.148E-02 0.249E+02
   0.471E+02 0.418E-02 -.533E+02   -.517E+02 -.443E-02 0.589E+02   0.488E+01 0.559E-03 -.557E+01
   -.408E+02 0.575E+02 -.212E+01   0.449E+02 -.633E+02 0.249E+01   -.430E+01 0.592E+01 -.280E+00
   -.409E+02 -.575E+02 -.212E+01   0.449E+02 0.633E+02 0.249E+01   -.430E+01 -.593E+01 -.280E+00
 -----------------------------------------------------------------------------------------------
   -.110E+02 0.366E-02 -.188E+02   0.000E+00 0.711E-14 0.400E-14   0.110E+02 -.366E-02 0.188E+02
 
 
 POSITION                                       TOTAL-FORCE (eV/Angst)
 -----------------------------------------------------------------------------------
      6.27015      5.67835     21.67516         0.237976     -0.005935     -0.146026
      5.62744      5.67829     22.46172         0.217575      0.000313     -0.034100
      6.87575      4.86193     21.74543        -0.229725      0.155729      0.089661
      6.87572      6.49460     21.74542        -0.225826     -0.150107      0.090465
 -----------------------------------------------------------------------------------
    total drift:                               -0.001325      0.000003     -0.004360


--------------------------------------------------------------------------------------------------------



  FREE ENERGIE OF THE ION-ELECTRON SYSTEM (eV)
  ---------------------------------------------------
  free  energy   TOTEN  =       -20.17647271 eV

  energy  without entropy=      -20.17647271  energy(sigma->0) =      -20.17647271
 


--------------------------------------------------------------------------------------------------------


    POTLOK:  cpu time      0.7428: real time      0.7451


--------------------------------------------------------------------------------------------------------


     LOOP+:  cpu time    131.8765: real time    132.5654
    4ORBIT:  cpu time      0.0000: real time      0.0000

 total amount of memory used by VASP MPI-rank0   181291. kBytes
=======================================================================

   base      :      30000. kBytes
   nonl-proj :      38201. kBytes
   fftplans  :      29410. kBytes
   grid      :      70615. kBytes
   one-center:          6. kBytes
   wavefun   :      13059. kBytes
 
  
  
 General timing and accounting informations for this job:
 ========================================================
  
                  Total CPU time used (sec):      137.369
                            User time (sec):      135.023
                          System time (sec):        2.347
                         Elapsed time (sec):      138.851
  
                   Maximum memory used (kb):      497072.
                   Average memory used (kb):          N/A
  
                          Minor page faults:        51248
                          Major page faults:          100
                 Voluntary context switches:         2001
