 vasp.6.3.0 20Jan22 (build Dec 25 2023 18:06:01) complex                         
 executed on        HPECrayEX_GCC date 2024.01.24  03:03:17
 running  768 mpi-ranks, with    1 threads/rank
 distrk:  each k-point on  768 cores,    1 groups
 distr:  one band on NCORE=   8 cores,   96 groups


--------------------------------------------------------------------------------------------------------


 INCAR:
   SYSTEM = MgO-rocksalt
   ISMEAR = 0
   SIGMA = 0.05
   EDIFF = 1E-8
   ALGO = ALL
   ISTART = 0
   IBRION = 5
   POTIM = 0.01
   NFREE = 2
   ISYM = 0
   DIPOL = 0.5 0.5 0.5
   IDIPOL = 3
   LDIPOL = .TRUE.
   GGA = MK
   LUSE_VDW = .TRUE.
   PARAM1 = 0.1234
   PARAM2 = 0.711357
   ZAB_VDW = -1.8867
   AGGAC = 0.0
   ENCUT = 600
   PREC = Accurate
   LASPH = .TRUE.
   LREAL = .FALSE.
   ISPIN = 1
   NELM = 200
   NELMIN = 8
   NCORE = 8
   KPAR = 1
   LWAVE = .FALSE.
   LCHARG = .FALSE.

 POTCAR:    PAW_PBE H 15Jun2001                   
 POTCAR:    PAW_PBE O 08Apr2002                   
 POTCAR:    PAW_PBE Ti_pv 07Sep2000               
 POTCAR:    PAW_PBE O 08Apr2002                   
 -----------------------------------------------------------------------------
|                                                                             |
|               ----> ADVICE to this user running VASP <----                  |
|                                                                             |
|     You have switched on vdW-DFT.                                           |
|     This routine was written and supplied by Jiri Klimes. We recommend      |
|     that you carefully read and cite the following publications:            |
|       J. Klimes, D.R. Bowler, A. Michelides                                 |
|          J. Phys.: Cond Matt. 22 022201 (2010)                              |
|       J. Klimes, D.R. Bowler, A. Michelides                                 |
|          Phys. Rev. B. 83, 195131 (2011)                                    |
|     and references therein.                                                 |
|                                                                             |
 -----------------------------------------------------------------------------

 POTCAR:    PAW_PBE H 15Jun2001                   
   SHA256 =  030f79b5d3ab3cf0e668861823c8fb652ff669f3e15e46930bd03bfd63a607b6 H/POTCAR              
   COPYR  = (c) Copyright 15Jun2001 Georg Kresse                                                    
   COPYR  = This file is part of the software VASP. Any use, copying, and all other rights are regul
   COPYR  = If you do not have a valid VASP license, you may not use, copy or distribute this file. 
   VRHFIN =H: ultrasoft test                                                                        
   LEXCH  = PE                                                                                      
   EATOM  =    12.4884 eV,    0.9179 Ry                                                             
                                                                                                    
   TITEL  = PAW_PBE H 15Jun2001                                                                     
   LULTRA =        F    use ultrasoft PP ?                                                          
   IUNSCR =        0    unscreen: 0-lin 1-nonlin 2-no                                               
   RPACOR =    0.000    partial core radius                                                         
   POMASS =    1.000; ZVAL   =    1.000    mass and valenz                                          
   RCORE  =    1.100    outmost cutoff radius                                                       
   RWIGS  =    0.700; RWIGS  =    0.370    wigner-seitz radius (au A)                               
   ENMAX  =  250.000; ENMIN  =  200.000 eV                                                          
   RCLOC  =    0.701    cutoff for local pot                                                        
   LCOR   =        T    correct aug charges                                                         
   LPAW   =        T    paw PP                                                                      
   EAUG   =  400.000                                                                                
   RMAX   =    1.123    core radius for proj-oper                                                   
   RAUG   =    1.200    factor for augmentation sphere                                              
   RDEP   =    1.112    radius for radial grids                                                     
   RDEPT  =    0.926    core radius for aug-charge                                                  
                                                                                                    
   Atomic configuration                                                                             
    2 entries                                                                                       
     n  l   j            E        occ.                                                              
     1  0  0.50        -6.4927   1.0000                                                             
     2  1  0.50        -3.4015   0.0000                                                             
   Description                                                                                      
     l       E           TYP  RCUT    TYP  RCUT                                                     
     0     -6.4927494     23  1.100                                                                 
     0      6.8029130     23  1.100                                                                 
     1     -4.0817478     23  1.100                                                                 
  local pseudopotential read in
  atomic valenz-charges read in
  non local Contribution for L=           0  read in
    real space projection operators read in
  non local Contribution for L=           0  read in
    real space projection operators read in
  non local Contribution for L=           1  read in
    real space projection operators read in
    PAW grid and wavefunctions read in

   number of l-projection  operators is LMAX  =           3
   number of lm-projection operators is LMMAX =           5

 POTCAR:    PAW_PBE O 08Apr2002                   
   SHA256 =  818f92134a0a090dccd8ba1447fa70422a3b330e708bb4f08108d8ae51209ddf O/POTCAR              
   COPYR  = (c) Copyright 08Apr2002 Georg Kresse                                                    
   COPYR  = This file is part of the software VASP. Any use, copying, and all other rights are regul
   COPYR  = If you do not have a valid VASP license, you may not use, copy or distribute this file. 
   VRHFIN =O: s2p4                                                                                  
   LEXCH  = PE                                                                                      
   EATOM  =   432.3788 eV,   31.7789 Ry                                                             
                                                                                                    
   TITEL  = PAW_PBE O 08Apr2002                                                                     
   LULTRA =        F    use ultrasoft PP ?                                                          
   IUNSCR =        1    unscreen: 0-lin 1-nonlin 2-no                                               
   RPACOR =    1.200    partial core radius                                                         
   POMASS =   16.000; ZVAL   =    6.000    mass and valenz                                          
   RCORE  =    1.520    outmost cutoff radius                                                       
   RWIGS  =    1.550; RWIGS  =    0.820    wigner-seitz radius (au A)                               
   ENMAX  =  400.000; ENMIN  =  300.000 eV                                                          
   ICORE  =        2    local potential                                                             
   LCOR   =        T    correct aug charges                                                         
   LPAW   =        T    paw PP                                                                      
   EAUG   =  605.392                                                                                
   DEXC   =    0.000                                                                                
   RMAX   =    1.553    core radius for proj-oper                                                   
   RAUG   =    1.300    factor for augmentation sphere                                              
   RDEP   =    1.550    radius for radial grids                                                     
   RDEPT  =    1.329    core radius for aug-charge                                                  
                                                                                                    
   Atomic configuration                                                                             
    4 entries                                                                                       
     n  l   j            E        occ.                                                              
     1  0  0.50      -514.6923   2.0000                                                             
     2  0  0.50       -23.9615   2.0000                                                             
     2  1  0.50        -9.0305   4.0000                                                             
     3  2  1.50        -9.5241   0.0000                                                             
   Description                                                                                      
     l       E           TYP  RCUT    TYP  RCUT                                                     
     0    -23.9615318     23  1.200                                                                 
     0     -9.5240782     23  1.200                                                                 
     1     -9.0304911     23  1.520                                                                 
     1      8.1634956     23  1.520                                                                 
     2     -9.5240782      7  1.500                                                                 
  local pseudopotential read in
  partial core-charges read in
  partial kinetic energy density read in
  kinetic energy density of atom read in
  atomic valenz-charges read in
  non local Contribution for L=           0  read in
    real space projection operators read in
  non local Contribution for L=           0  read in
    real space projection operators read in
  non local Contribution for L=           1  read in
    real space projection operators read in
  non local Contribution for L=           1  read in
    real space projection operators read in
    PAW grid and wavefunctions read in

   number of l-projection  operators is LMAX  =           4
   number of lm-projection operators is LMMAX =           8

 POTCAR:    PAW_PBE Ti_pv 07Sep2000               
   SHA256 =  f757a1b2c6d082f4c628fa3d987464a8763bf92e53844ac0500b0e2ddc9ce5c0 Ti_pv/POTCAR          
   COPYR  = (c) Copyright 07Sep2000 Georg Kresse                                                    
   COPYR  = This file is part of the software VASP. Any use, copying, and all other rights are regul
   COPYR  = If you do not have a valid VASP license, you may not use, copy or distribute this file. 
   VRHFIN =Ti: d3 s1                                                                                
   LEXCH  = PE                                                                                      
   EATOM  =  1042.5995 eV,   76.6289 Ry                                                             
                                                                                                    
   TITEL  = PAW_PBE Ti_pv 07Sep2000                                                                 
   LULTRA =        F    use ultrasoft PP ?                                                          
   IUNSCR =        1    unscreen: 0-lin 1-nonlin 2-no                                               
   RPACOR =    2.200    partial core radius                                                         
   POMASS =   47.880; ZVAL   =   10.000    mass and valenz                                          
   RCORE  =    2.500    outmost cutoff radius                                                       
   RWIGS  =    2.500; RWIGS  =    1.323    wigner-seitz radius (au A)                               
   ENMAX  =  222.335; ENMIN  =  166.751 eV                                                          
   RCLOC  =    1.701    cutoff for local pot                                                        
   LCOR   =        T    correct aug charges                                                         
   LPAW   =        T    paw PP                                                                      
   EAUG   =  482.848                                                                                
   DEXC   =    0.000                                                                                
   RMAX   =    2.564    core radius for proj-oper                                                   
   RAUG   =    1.300    factor for augmentation sphere                                              
   RDEP   =    2.538    radius for radial grids                                                     
   RDEPT  =    1.952    core radius for aug-charge                                                  
                                                                                                    
   Atomic configuration                                                                             
    8 entries                                                                                       
     n  l   j            E        occ.                                                              
     1  0  0.50     -4865.3608   2.0000                                                             
     2  0  0.50      -533.1368   2.0000                                                             
     2  1  1.50      -440.5031   6.0000                                                             
     3  0  0.50       -59.3186   2.0000                                                             
     3  1  1.50       -35.7012   6.0000                                                             
     3  2  2.50        -1.9157   3.0000                                                             
     4  0  0.50        -3.7291   1.0000                                                             
     4  3  2.50        -1.3606   0.0000                                                             
   Description                                                                                      
     l       E           TYP  RCUT    TYP  RCUT                                                     
     1    -35.7012140     23  2.300                                                                 
     1     -1.3605826     23  2.300                                                                 
     2     -1.9156996     23  2.500                                                                 
     2     -0.4063033     23  2.500                                                                 
     0     -3.7290856     23  2.500                                                                 
     0     20.4087390     23  2.500                                                                 
  local pseudopotential read in
  partial core-charges read in
  partial kinetic energy density read in
  atomic valenz-charges read in
  non local Contribution for L=           1  read in
    real space projection operators read in
  non local Contribution for L=           1  read in
    real space projection operators read in
  non local Contribution for L=           2  read in
    real space projection operators read in
  non local Contribution for L=           2  read in
    real space projection operators read in
  non local Contribution for L=           0  read in
    real space projection operators read in
  non local Contribution for L=           0  read in
    real space projection operators read in
    PAW grid and wavefunctions read in

   number of l-projection  operators is LMAX  =           6
   number of lm-projection operators is LMMAX =          18

 POTCAR:    PAW_PBE O 08Apr2002                   
   SHA256 =  818f92134a0a090dccd8ba1447fa70422a3b330e708bb4f08108d8ae51209ddf O/POTCAR              
   COPYR  = (c) Copyright 08Apr2002 Georg Kresse                                                    
   COPYR  = This file is part of the software VASP. Any use, copying, and all other rights are regul
   COPYR  = If you do not have a valid VASP license, you may not use, copy or distribute this file. 
   VRHFIN =O: s2p4                                                                                  
   LEXCH  = PE                                                                                      
   EATOM  =   432.3788 eV,   31.7789 Ry                                                             
                                                                                                    
   TITEL  = PAW_PBE O 08Apr2002                                                                     
   LULTRA =        F    use ultrasoft PP ?                                                          
   IUNSCR =        1    unscreen: 0-lin 1-nonlin 2-no                                               
   RPACOR =    1.200    partial core radius                                                         
   POMASS =   16.000; ZVAL   =    6.000    mass and valenz                                          
   RCORE  =    1.520    outmost cutoff radius                                                       
   RWIGS  =    1.550; RWIGS  =    0.820    wigner-seitz radius (au A)                               
   ENMAX  =  400.000; ENMIN  =  300.000 eV                                                          
   ICORE  =        2    local potential                                                             
   LCOR   =        T    correct aug charges                                                         
   LPAW   =        T    paw PP                                                                      
   EAUG   =  605.392                                                                                
   DEXC   =    0.000                                                                                
   RMAX   =    1.553    core radius for proj-oper                                                   
   RAUG   =    1.300    factor for augmentation sphere                                              
   RDEP   =    1.550    radius for radial grids                                                     
   RDEPT  =    1.329    core radius for aug-charge                                                  
                                                                                                    
   Atomic configuration                                                                             
    4 entries                                                                                       
     n  l   j            E        occ.                                                              
     1  0  0.50      -514.6923   2.0000                                                             
     2  0  0.50       -23.9615   2.0000                                                             
     2  1  0.50        -9.0305   4.0000                                                             
     3  2  1.50        -9.5241   0.0000                                                             
   Description                                                                                      
     l       E           TYP  RCUT    TYP  RCUT                                                     
     0    -23.9615318     23  1.200                                                                 
     0     -9.5240782     23  1.200                                                                 
     1     -9.0304911     23  1.520                                                                 
     1      8.1634956     23  1.520                                                                 
     2     -9.5240782      7  1.500                                                                 
  local pseudopotential read in
  partial core-charges read in
  partial kinetic energy density read in
  kinetic energy density of atom read in
  atomic valenz-charges read in
  non local Contribution for L=           0  read in
    real space projection operators read in
  non local Contribution for L=           0  read in
    real space projection operators read in
  non local Contribution for L=           1  read in
    real space projection operators read in
  non local Contribution for L=           1  read in
    real space projection operators read in
    PAW grid and wavefunctions read in

   number of l-projection  operators is LMAX  =           4
   number of lm-projection operators is LMMAX =           8

 -----------------------------------------------------------------------------
|                                                                             |
|               ----> ADVICE to this user running VASP <----                  |
|                                                                             |
|     You have a (more or less) 'large supercell' and for larger cells it     |
|     might be more efficient to use real-space projection operators.         |
|     Therefore, try LREAL= Auto in the INCAR file.                           |
|     Mind: For very accurate calculation, you might also keep the            |
|     reciprocal projection scheme (i.e. LREAL=.FALSE.).                      |
|                                                                             |
 -----------------------------------------------------------------------------

 -----------------------------------------------------------------------------
|                                                                             |
|               ----> ADVICE to this user running VASP <----                  |
|                                                                             |
|     You enforced a specific xc type in the INCAR file but a different       |
|     type was found in the POTCAR file.                                      |
|     I HOPE YOU KNOW WHAT YOU ARE DOING!                                     |
|                                                                             |
 -----------------------------------------------------------------------------

  PAW_PBE H 15Jun2001                   :
 energy of atom  1       EATOM=  -12.4884
 kinetic energy error for atom=    0.0004 (will be added to EATOM!!)
  PAW_PBE O 08Apr2002                   :
 energy of atom  2       EATOM= -432.3788
 kinetic energy error for atom=    0.0168 (will be added to EATOM!!)
  PAW_PBE Ti_pv 07Sep2000               :
 energy of atom  3       EATOM=-1042.5995
 kinetic energy error for atom=    0.0007 (will be added to EATOM!!)
  PAW_PBE O 08Apr2002                   :
 energy of atom  4       EATOM= -432.3788
 kinetic energy error for atom=    0.0168 (will be added to EATOM!!)


 POSCAR:  H  O Ti  O
  positions in direct lattice
  No initial velocities read in
 exchange correlation table for  LEXCH =       43
   RHO(1)=    0.500       N(1)  =     2000
   RHO(2)=  100.500       N(2)  =     4000



--------------------------------------------------------------------------------------------------------


 ion  position               nearest neighbor table
   1  0.513  0.550  0.802-   3 0.98
   2  0.615  0.496  0.782-   3 1.00
   3  0.539  0.492  0.782-   1 0.98   2 1.00  83 2.19
   4  0.750  0.625  0.287-  84 1.96  85 1.96 144 1.96 145 1.96 166 1.99  87 1.99  14 2.96  34 2.96

   5  0.000  0.750  0.287-  87 1.96 107 1.96 106 1.96  86 1.96  88 1.99  35 2.96  15 2.96
   6  0.000  0.625  0.393-  88 1.96  89 1.96 148 1.96 149 1.96  90 1.99  91 1.99  16 2.96  36 2.96

   7  0.750  0.750  0.393- 171 1.96 191 1.96  90 1.96 110 1.96  92 1.99  85 1.99  17 2.96  37 2.96

   8  0.750  0.625  0.500-  92 1.96  93 1.96 152 1.96 153 1.96 174 1.99  95 1.99  18 2.96  38 2.96

   9  0.000  0.750  0.500-  95 1.96 115 1.96 114 1.96  94 1.96  89 1.99  96 2.01  19 2.96  39 2.96

  10  0.006  0.625  0.604-  99 1.89 156 1.90  96 1.90  97 2.02 157 2.02  98 2.02  20 2.96  40 2.96

  11  0.755  0.750  0.610- 100 1.88  98 1.94 118 1.94 179 2.01 199 2.01  93 2.10  21 2.96  41 2.96

  12  0.751  0.626  0.719- 101 1.83 161 1.87 182 2.02 103 2.03 100 2.08 160 2.09  22 2.95  42 2.99

  13  0.000  0.750  0.709-  97 1.82 122 1.94 123 1.95 102 1.95 103 1.96  23 2.96  43 2.96
  14  0.750  0.875  0.287-  84 1.96  85 1.96 104 1.96 105 1.96 186 1.99 107 1.99   4 2.96  24 2.96

  15  0.000  0.000  0.287- 107 1.96 127 1.96 126 1.96 106 1.96 108 1.99  25 2.96   5 2.96
  16  0.000  0.875  0.393-  88 1.96  89 1.96 108 1.96 109 1.96 110 1.99 111 1.99   6 2.96  26 2.96

  17  0.750  0.000  0.393- 191 1.96 211 1.96 110 1.96 130 1.96 112 1.99 105 1.99   7 2.96  27 2.96

  18  0.750  0.875  0.500-  92 1.96  93 1.96 112 1.96 113 1.96 194 1.99 115 1.99   8 2.96  28 2.96

  19  0.000  0.000  0.500- 115 1.96 135 1.96 134 1.96 114 1.96 109 1.99 116 2.01   9 2.96  29 2.96

  20  0.006  0.875  0.604- 119 1.89  96 1.90 116 1.90 117 2.02  97 2.02 118 2.03  30 2.96  10 2.96

  21  0.754  0.000  0.611- 120 1.88 138 1.94 118 1.94 219 2.01 199 2.01 113 2.11  31 2.96  11 2.96

  22  0.750  0.875  0.720- 121 1.83 101 1.84 202 2.03 123 2.05 120 2.09 100 2.09  12 2.95  32 2.95

  23  0.000  1.000  0.709- 117 1.82 123 1.95 143 1.95 142 1.95 122 1.95  13 2.96  33 2.96
  24  0.750  0.125  0.287- 104 1.96 105 1.96 124 1.96 125 1.96 206 1.99 127 1.99  14 2.96  34 2.96

  25  0.000  0.250  0.287- 127 1.96 147 1.96 146 1.96 126 1.96 128 1.99  35 2.96  15 2.96
  26  0.000  0.125  0.393- 108 1.96 109 1.96 128 1.96 129 1.96 130 1.99 131 1.99  16 2.96  36 2.96

  27  0.750  0.250  0.393- 211 1.96 231 1.96 130 1.96 150 1.96 132 1.99 125 1.99  17 2.96  37 2.96

  28  0.750  0.125  0.500- 112 1.96 113 1.96 132 1.96 133 1.96 214 1.99 135 1.99  18 2.96  38 2.96

  29  0.000  0.250  0.500- 135 1.96 155 1.96 154 1.96 134 1.96 129 1.99 136 2.01  19 2.96  39 2.96

  30  0.006  0.125  0.604- 139 1.89 136 1.90 116 1.90 117 2.02 137 2.02 138 2.03  20 2.96  40 2.96

  31  0.755  0.250  0.610- 140 1.88 138 1.94 158 1.94 219 2.01 239 2.01 133 2.10  21 2.96  41 2.96

  32  0.750  0.124  0.720- 121 1.83 141 1.84 222 2.03 143 2.05 120 2.09 140 2.10  42 2.95  22 2.95

  33  0.000  0.250  0.709- 137 1.82 142 1.94 143 1.95 162 1.95 163 1.96  23 2.96  43 2.97
  34  0.750  0.375  0.287- 124 1.96 125 1.96 144 1.96 145 1.96 226 1.99 147 1.99   4 2.96  24 2.96

  35  0.000  0.500  0.287-  87 1.96 147 1.96 146 1.96  86 1.96 148 1.99  25 2.96   5 2.96
  36  0.000  0.375  0.393- 128 1.96 129 1.96 148 1.96 149 1.96 150 1.99 151 1.99   6 2.96  26 2.96

  37  0.750  0.500  0.393- 171 1.96 231 1.96  90 1.96 150 1.96 145 1.99 152 1.99   7 2.96  27 2.96

  38  0.750  0.375  0.500- 132 1.96 133 1.96 152 1.96 153 1.96 234 1.99 155 1.99   8 2.96  28 2.96

  39  0.000  0.500  0.500-  95 1.96 155 1.96 154 1.96  94 1.96 149 1.99 156 2.00   9 2.96  29 2.96

  40  0.006  0.375  0.604- 159 1.90 156 1.90 136 1.90 137 2.02 157 2.02 158 2.02  30 2.96  10 2.96

  41  0.755  0.500  0.610- 160 1.87 158 1.94  98 1.94 239 2.01 179 2.01 153 2.10  31 2.96  11 2.96

  42  0.752  0.373  0.719- 141 1.83 161 1.87 163 2.02 242 2.03 140 2.07 160 2.10  32 2.95  12 2.99

  43  0.001  0.500  0.709- 157 1.82 102 1.95 162 1.95 103 1.95 163 1.95  13 2.96  33 2.97
  44  0.250  0.625  0.287- 164 1.96 165 1.96 224 1.96 225 1.96  86 1.99 167 1.99  54 2.96  74 2.96

  45  0.500  0.750  0.287- 167 1.96 187 1.96 186 1.96 166 1.96 168 1.99  75 2.96  55 2.96
  46  0.500  0.625  0.393- 168 1.96 169 1.96 228 1.96 229 1.96 170 1.99 171 1.99  56 2.96  76 2.96

  47  0.250  0.750  0.393-  91 1.96 111 1.96 170 1.96 190 1.96 172 1.99 165 1.99  57 2.96  77 2.96

  48  0.250  0.625  0.500- 172 1.96 173 1.96 232 1.96 233 1.96  94 1.99 175 1.99  58 2.96  78 2.96

  49  0.500  0.750  0.500- 175 1.96 195 1.96 194 1.96 174 1.96 169 1.99 176 2.00  59 2.96  79 2.96

  50  0.506  0.623  0.606- 179 1.90 236 1.90 176 1.94 237 1.99 177 2.01 178 2.03  80 2.91  60 2.98

  51  0.255  0.750  0.611- 180 1.88 178 1.94 198 1.94  99 2.01 119 2.01 173 2.11  81 2.96  61 2.96

  52  0.251  0.625  0.720- 181 1.83 241 1.84 102 2.04 183 2.06 180 2.09 240 2.09  62 2.96  82 2.96

  53  0.501  0.750  0.707- 177 1.81 182 1.92 202 1.95 183 1.95 203 1.97  63 2.96  83 2.98
  54  0.250  0.875  0.287- 164 1.96 165 1.96 184 1.96 185 1.96 106 1.99 187 1.99  44 2.96  64 2.96

  55  0.500  0.000  0.287- 187 1.96 207 1.96 206 1.96 186 1.96 188 1.99  65 2.96  45 2.96
  56  0.500  0.875  0.393- 168 1.96 169 1.96 188 1.96 189 1.96 190 1.99 191 1.99  46 2.96  66 2.96

  57  0.250  0.000  0.393- 111 1.96 131 1.96 190 1.96 210 1.96 192 1.99 185 1.99  47 2.96  67 2.96

  58  0.250  0.875  0.500- 172 1.96 173 1.96 192 1.96 193 1.96 114 1.99 195 1.99  48 2.96  68 2.96

  59  0.500  0.000  0.500- 195 1.96 215 1.96 214 1.96 194 1.96 189 1.99 196 1.99  49 2.96  69 2.96

  60  0.505  0.874  0.603- 176 1.89 196 1.90 199 1.90 177 2.00 198 2.03 197 2.03  50 2.98  70 2.98

  61  0.254  1.000  0.611- 200 1.87 198 1.94 218 1.94 139 2.01 119 2.01 193 2.11  51 2.96  71 2.96

  62  0.251  0.875  0.720- 201 1.83 181 1.84 203 2.03 122 2.05 200 2.10 180 2.10  72 2.96  52 2.96

  63  0.500  1.000  0.708- 197 1.81 203 1.94 223 1.94 222 1.96 202 1.96  73 2.96  53 2.96
  64  0.250  0.125  0.287- 184 1.96 185 1.96 204 1.96 205 1.96 126 1.99 207 1.99  54 2.96  74 2.96

  65  0.500  0.250  0.287- 207 1.96 227 1.96 226 1.96 206 1.96 208 1.99  75 2.96  55 2.96
  66  0.500  0.125  0.393- 188 1.96 189 1.96 208 1.96 209 1.96 210 1.99 211 1.99  56 2.96  76 2.96

  67  0.250  0.250  0.393- 131 1.96 151 1.96 210 1.96 230 1.96 212 1.99 205 1.99  57 2.96  77 2.96

  68  0.250  0.125  0.500- 192 1.96 193 1.96 212 1.96 213 1.96 134 1.99 215 1.99  58 2.96  78 2.96

  69  0.500  0.250  0.500- 215 1.96 235 1.96 234 1.96 214 1.96 209 1.99 216 2.00  59 2.96  79 2.96

  70  0.505  0.126  0.604- 216 1.89 196 1.90 219 1.91 217 2.00 218 2.03 197 2.03  80 2.98  60 2.98

  71  0.255  0.250  0.611- 220 1.87 238 1.94 218 1.94 159 2.01 139 2.01 213 2.11  81 2.96  61 2.96

  72  0.251  0.125  0.720- 201 1.83 221 1.84 223 2.03 142 2.05 200 2.10 220 2.10  62 2.96  82 2.96

  73  0.501  0.250  0.708- 217 1.81 242 1.92 243 1.94 222 1.95 223 1.96  63 2.96  83 2.96
  74  0.250  0.375  0.287- 204 1.96 205 1.96 224 1.96 225 1.96 146 1.99 227 1.99  44 2.96  64 2.96

  75  0.500  0.500  0.287- 167 1.96 227 1.96 226 1.96 166 1.96 228 1.99  65 2.96  45 2.96
  76  0.500  0.375  0.393- 208 1.96 209 1.96 228 1.96 229 1.96 230 1.99 231 1.99  46 2.96  66 2.96

  77  0.250  0.500  0.393-  91 1.96 151 1.96 170 1.96 230 1.96 225 1.99 232 1.99  47 2.96  67 2.96

  78  0.250  0.375  0.500- 212 1.96 213 1.96 232 1.96 233 1.96 154 1.99 235 1.99  48 2.96  68 2.96

  79  0.500  0.500  0.500- 175 1.96 235 1.96 234 1.96 174 1.96 229 1.99 236 2.01  49 2.96  69 2.96

  80  0.506  0.377  0.606- 239 1.90 236 1.90 216 1.94 237 1.99 217 2.01 238 2.03  50 2.91  70 2.98

  81  0.255  0.500  0.611- 240 1.87 178 1.94 238 1.94 159 2.01  99 2.01 233 2.11  51 2.96  71 2.96

  82  0.251  0.375  0.720- 221 1.83 241 1.84 162 2.04 243 2.04 220 2.10 240 2.10  72 2.96  52 2.96

  83  0.501  0.499  0.712- 237 1.91 243 1.94 183 1.95 242 1.96 182 1.99   3 2.19  73 2.96  53 2.98

  84  0.750  0.750  0.245-   4 1.96  14 1.96
  85  0.750  0.750  0.328-   4 1.96  14 1.96   7 1.99
  86  0.098  0.625  0.287-   5 1.96  35 1.96  44 1.99
  87  0.902  0.625  0.287-   5 1.96  35 1.96   4 1.99
  88  0.000  0.750  0.352-   6 1.96  16 1.96   5 1.99
  89  0.000  0.750  0.435-   6 1.96  16 1.96   9 1.99
  90  0.848  0.625  0.393-   7 1.96  37 1.96   6 1.99
  91  0.152  0.625  0.393-  47 1.96  77 1.96   6 1.99
  92  0.750  0.750  0.458-   8 1.96  18 1.96   7 1.99
  93  0.750  0.750  0.542-   8 1.96  18 1.96  11 2.10
  94  0.098  0.625  0.500-   9 1.96  39 1.96  48 1.99
  95  0.902  0.625  0.500-   9 1.96  39 1.96   8 1.99
  96  0.001  0.750  0.565-  20 1.90  10 1.90   9 2.01
  97  1.000  0.750  0.649-  13 1.82  10 2.02  20 2.02
  98  0.851  0.625  0.607-  11 1.94  41 1.94  10 2.02
  99  0.151  0.625  0.607-  10 1.89  51 2.01  81 2.01
 100  0.754  0.751  0.672-  11 1.88  12 2.08  22 2.09
 101  0.749  0.749  0.755-  12 1.83  22 1.84
 102  0.095  0.625  0.719-  43 1.95  13 1.95  52 2.04
 103  0.907  0.624  0.720-  43 1.95  13 1.96  12 2.03
 104  0.750  0.000  0.245-  14 1.96  24 1.96
 105  0.750  0.000  0.328-  14 1.96  24 1.96  17 1.99
 106  0.098  0.875  0.287-   5 1.96  15 1.96  54 1.99
 107  0.902  0.875  0.287-   5 1.96  15 1.96  14 1.99
 108  0.000  0.000  0.352-  16 1.96  26 1.96  15 1.99
 109  0.000  0.000  0.435-  16 1.96  26 1.96  19 1.99
 110  0.848  0.875  0.393-   7 1.96  17 1.96  16 1.99
 111  0.152  0.875  0.393-  47 1.96  57 1.96  16 1.99
 112  0.750  0.000  0.458-  18 1.96  28 1.96  17 1.99
 113  0.750  0.000  0.542-  18 1.96  28 1.96  21 2.11
 114  0.098  0.875  0.500-   9 1.96  19 1.96  58 1.99
 115  0.902  0.875  0.500-   9 1.96  19 1.96  18 1.99
 116  0.001  1.000  0.565-  20 1.90  30 1.90  19 2.01
 117  0.000  1.000  0.649-  23 1.82  20 2.02  30 2.02
 118  0.851  0.875  0.607-  11 1.94  21 1.94  20 2.03
 119  0.150  0.875  0.607-  20 1.89  61 2.01  51 2.01
 120  0.751  1.000  0.672-  21 1.88  32 2.09  22 2.09
 121  0.750  1.000  0.756-  32 1.83  22 1.83
 122  0.094  0.875  0.719-  13 1.94  23 1.95  62 2.05
 123  0.907  0.875  0.719-  13 1.95  23 1.95  22 2.05
 124  0.750  0.250  0.245-  24 1.96  34 1.96
 125  0.750  0.250  0.328-  24 1.96  34 1.96  27 1.99
 126  0.098  0.125  0.287-  15 1.96  25 1.96  64 1.99
 127  0.902  0.125  0.287-  15 1.96  25 1.96  24 1.99
 128  0.000  0.250  0.352-  26 1.96  36 1.96  25 1.99
 129  0.000  0.250  0.435-  26 1.96  36 1.96  29 1.99
 130  0.848  0.125  0.393-  17 1.96  27 1.96  26 1.99
 131  0.152  0.125  0.393-  57 1.96  67 1.96  26 1.99
 132  0.750  0.250  0.458-  28 1.96  38 1.96  27 1.99
 133  0.750  0.250  0.542-  28 1.96  38 1.96  31 2.10
 134  0.098  0.125  0.500-  19 1.96  29 1.96  68 1.99
 135  0.902  0.125  0.500-  19 1.96  29 1.96  28 1.99
 136  0.001  0.250  0.565-  30 1.90  40 1.90  29 2.01
 137  0.000  0.250  0.649-  33 1.82  40 2.02  30 2.02
 138  0.851  0.125  0.607-  21 1.94  31 1.94  30 2.03
 139  0.150  0.125  0.607-  30 1.89  61 2.01  71 2.01
 140  0.753  0.250  0.672-  31 1.88  42 2.07  32 2.10
 141  0.749  0.251  0.755-  42 1.83  32 1.84
 142  0.094  0.125  0.719-  33 1.94  23 1.95  72 2.05
 143  0.907  0.125  0.719-  33 1.95  23 1.95  32 2.05
 144  0.750  0.500  0.245-   4 1.96  34 1.96
 145  0.750  0.500  0.328-   4 1.96  34 1.96  37 1.99
 146  0.098  0.375  0.287-  25 1.96  35 1.96  74 1.99
 147  0.902  0.375  0.287-  25 1.96  35 1.96  34 1.99
 148  0.000  0.500  0.352-   6 1.96  36 1.96  35 1.99
 149  0.000  0.500  0.435-   6 1.96  36 1.96  39 1.99
 150  0.848  0.375  0.393-  27 1.96  37 1.96  36 1.99
 151  0.152  0.375  0.393-  67 1.96  77 1.96  36 1.99
 152  0.750  0.500  0.458-   8 1.96  38 1.96  37 1.99
 153  0.750  0.500  0.542-   8 1.96  38 1.96  41 2.10
 154  0.098  0.375  0.500-  29 1.96  39 1.96  78 1.99
 155  0.902  0.375  0.500-  29 1.96  39 1.96  38 1.99
 156  0.001  0.500  0.565-  40 1.90  10 1.90  39 2.00
 157  0.000  0.500  0.649-  43 1.82  10 2.02  40 2.02
 158  0.851  0.375  0.607-  41 1.94  31 1.94  40 2.02
 159  0.150  0.375  0.607-  40 1.90  71 2.01  81 2.01
 160  0.756  0.500  0.672-  41 1.87  12 2.09  42 2.10
 161  0.739  0.500  0.756-  12 1.87  42 1.87
 162  0.095  0.375  0.719-  43 1.95  33 1.95  82 2.04
 163  0.907  0.376  0.720-  43 1.95  33 1.96  42 2.02
 164  0.250  0.750  0.245-  44 1.96  54 1.96
 165  0.250  0.750  0.328-  44 1.96  54 1.96  47 1.99
 166  0.598  0.625  0.287-  45 1.96  75 1.96   4 1.99
 167  0.402  0.625  0.287-  45 1.96  75 1.96  44 1.99
 168  0.500  0.750  0.352-  46 1.96  56 1.96  45 1.99
 169  0.500  0.750  0.435-  46 1.96  56 1.96  49 1.99
 170  0.348  0.625  0.393-  47 1.96  77 1.96  46 1.99
 171  0.652  0.625  0.393-   7 1.96  37 1.96  46 1.99
 172  0.250  0.750  0.458-  48 1.96  58 1.96  47 1.99
 173  0.250  0.750  0.542-  48 1.96  58 1.96  51 2.11
 174  0.598  0.625  0.500-  49 1.96  79 1.96   8 1.99
 175  0.402  0.625  0.500-  49 1.96  79 1.96  48 1.99
 176  0.501  0.749  0.565-  60 1.89  50 1.94  49 2.00
 177  0.498  0.751  0.648-  53 1.81  60 2.00  50 2.01
 178  0.350  0.625  0.607-  51 1.94  81 1.94  50 2.03
 179  0.651  0.625  0.608-  50 1.90  11 2.01  41 2.01
 180  0.252  0.750  0.672-  51 1.88  52 2.09  62 2.10
 181  0.251  0.750  0.756-  52 1.83  62 1.84
 182  0.597  0.629  0.714-  53 1.92  83 1.99  12 2.02
 183  0.408  0.626  0.720-  83 1.95  53 1.95  52 2.06
 184  0.250  0.000  0.245-  54 1.96  64 1.96
 185  0.250  0.000  0.328-  54 1.96  64 1.96  57 1.99
 186  0.598  0.875  0.287-  45 1.96  55 1.96  14 1.99
 187  0.402  0.875  0.287-  45 1.96  55 1.96  54 1.99
 188  0.500  0.000  0.352-  56 1.96  66 1.96  55 1.99
 189  0.500  0.000  0.435-  56 1.96  66 1.96  59 1.99
 190  0.348  0.875  0.393-  47 1.96  57 1.96  56 1.99
 191  0.652  0.875  0.393-   7 1.96  17 1.96  56 1.99
 192  0.250  0.000  0.458-  58 1.96  68 1.96  57 1.99
 193  0.250  0.000  0.542-  58 1.96  68 1.96  61 2.11
 194  0.598  0.875  0.500-  49 1.96  59 1.96  18 1.99
 195  0.402  0.875  0.500-  49 1.96  59 1.96  58 1.99
 196  0.500  0.000  0.565-  60 1.90  70 1.90  59 1.99
 197  0.500  1.000  0.649-  63 1.81  60 2.03  70 2.03
 198  0.350  0.875  0.607-  61 1.94  51 1.94  60 2.03
 199  0.651  0.875  0.607-  60 1.90  21 2.01  11 2.01
 200  0.250  1.000  0.672-  61 1.87  72 2.10  62 2.10
 201  0.250  1.000  0.756-  62 1.83  72 1.83
 202  0.595  0.875  0.718-  53 1.95  63 1.96  22 2.03
 203  0.406  0.876  0.719-  63 1.94  53 1.97  62 2.03
 204  0.250  0.250  0.245-  64 1.96  74 1.96
 205  0.250  0.250  0.328-  64 1.96  74 1.96  67 1.99
 206  0.598  0.125  0.287-  55 1.96  65 1.96  24 1.99
 207  0.402  0.125  0.287-  55 1.96  65 1.96  64 1.99
 208  0.500  0.250  0.352-  66 1.96  76 1.96  65 1.99
 209  0.500  0.250  0.435-  66 1.96  76 1.96  69 1.99
 210  0.348  0.125  0.393-  57 1.96  67 1.96  66 1.99
 211  0.652  0.125  0.393-  17 1.96  27 1.96  66 1.99
 212  0.250  0.250  0.458-  68 1.96  78 1.96  67 1.99
 213  0.250  0.250  0.542-  68 1.96  78 1.96  71 2.11
 214  0.598  0.125  0.500-  59 1.96  69 1.96  28 1.99
 215  0.402  0.125  0.500-  59 1.96  69 1.96  68 1.99
 216  0.501  0.251  0.565-  70 1.89  80 1.94  69 2.00
 217  0.499  0.248  0.649-  73 1.81  70 2.00  80 2.01
 218  0.350  0.125  0.607-  61 1.94  71 1.94  70 2.03
 219  0.651  0.125  0.607-  70 1.91  21 2.01  31 2.01
 220  0.250  0.250  0.672-  71 1.87  82 2.10  72 2.10
 221  0.251  0.250  0.756-  82 1.83  72 1.84
 222  0.595  0.125  0.719-  73 1.95  63 1.96  32 2.03
 223  0.406  0.124  0.719-  63 1.94  73 1.96  72 2.03
 224  0.250  0.500  0.245-  44 1.96  74 1.96
 225  0.250  0.500  0.328-  44 1.96  74 1.96  77 1.99
 226  0.598  0.375  0.287-  65 1.96  75 1.96  34 1.99
 227  0.402  0.375  0.287-  65 1.96  75 1.96  74 1.99
 228  0.500  0.500  0.352-  46 1.96  76 1.96  75 1.99
 229  0.500  0.500  0.435-  46 1.96  76 1.96  79 1.99
 230  0.348  0.375  0.393-  67 1.96  77 1.96  76 1.99
 231  0.652  0.375  0.393-  27 1.96  37 1.96  76 1.99
 232  0.250  0.500  0.458-  48 1.96  78 1.96  77 1.99
 233  0.250  0.500  0.542-  48 1.96  78 1.96  81 2.11
 234  0.598  0.375  0.500-  69 1.96  79 1.96  38 1.99
 235  0.402  0.375  0.500-  69 1.96  79 1.96  78 1.99
 236  0.501  0.500  0.566-  50 1.90  80 1.90  79 2.01
 237  0.500  0.500  0.650-  83 1.91  50 1.99  80 1.99
 238  0.350  0.375  0.607-  71 1.94  81 1.94  80 2.03
 239  0.651  0.375  0.608-  80 1.90  31 2.01  41 2.01
 240  0.251  0.500  0.672-  81 1.87  52 2.09  82 2.10
 241  0.252  0.500  0.756-  82 1.84  52 1.84
 242  0.597  0.371  0.714-  73 1.92  83 1.96  42 2.03
 243  0.407  0.374  0.718-  83 1.94  73 1.94  82 2.04


IMPORTANT INFORMATION: All symmetrisations will be switched off!
NOSYMM: (Re-)initialisation of all symmetry stuff for point group C_1.


----------------------------------------------------------------------------------------

                                     Primitive cell                                     

  volume of cell :    4737.1524

  direct lattice vectors                    reciprocal lattice vectors
    13.061127704  0.000000000  0.000000000     0.076563067  0.000000000  0.000000000
     0.000000000 11.845298948  0.000000000     0.000000000  0.084421677  0.000000000
     0.000000000  0.000000000 30.618975621     0.000000000  0.000000000  0.032659486

  length of vectors
    13.061127704 11.845298948 30.618975621     0.076563067  0.084421677  0.032659486

  position of ions in fractional coordinates (direct lattice)
     0.512624882  0.550188198  0.801708925
     0.615442580  0.495789986  0.782168382
     0.538709299  0.491865763  0.782149821
     0.750000000  0.625000000  0.286715143
     0.000000000  0.750000000  0.286715143
     0.000000000  0.625000000  0.393357571
     0.750000000  0.750000000  0.393357571
     0.750000000  0.625000000  0.500000000
     0.000000000  0.750000000  0.500000000
     0.005638758  0.625035061  0.604416809
     0.754893248  0.750103789  0.610243765
     0.751228869  0.625854106  0.719206811
     0.000326318  0.750256976  0.708656100
     0.750000000  0.875000000  0.286715143
     0.000000000  0.000000000  0.286715143
     0.000000000  0.875000000  0.393357571
     0.750000000  0.000000000  0.393357571
     0.750000000  0.875000000  0.500000000
     0.000000000  0.000000000  0.500000000
     0.005503934  0.875008901  0.604468843
     0.754149504  0.000019186  0.610519194
     0.750018801  0.875023848  0.720184334
     0.000431576  0.999902341  0.708605784
     0.750000000  0.125000000  0.286715143
     0.000000000  0.250000000  0.286715143
     0.000000000  0.125000000  0.393357571
     0.750000000  0.250000000  0.393357571
     0.750000000  0.125000000  0.500000000
     0.000000000  0.250000000  0.500000000
     0.005510106  0.124940473  0.604457218
     0.754643660  0.249807522  0.610218954
     0.749905450  0.124282593  0.720177138
     0.000398169  0.249561244  0.708636163
     0.750000000  0.375000000  0.286715143
     0.000000000  0.500000000  0.286715143
     0.000000000  0.375000000  0.393357571
     0.750000000  0.500000000  0.393357571
     0.750000000  0.375000000  0.500000000
     0.000000000  0.500000000  0.500000000
     0.005524643  0.374967325  0.604403213
     0.755154782  0.499954802  0.610434641
     0.751798027  0.373388853  0.719255828
     0.001108345  0.500055693  0.708593659
     0.250000000  0.625000000  0.286715143
     0.500000000  0.750000000  0.286715143
     0.500000000  0.625000000  0.393357571
     0.250000000  0.750000000  0.393357571
     0.250000000  0.625000000  0.500000000
     0.500000000  0.750000000  0.500000000
     0.505783107  0.622743094  0.605633207
     0.254874477  0.749901494  0.610538265
     0.250749840  0.625143955  0.720282687
     0.500978395  0.750196006  0.707445814
     0.250000000  0.875000000  0.286715143
     0.500000000  0.000000000  0.286715143
     0.500000000  0.875000000  0.393357571
     0.250000000  0.000000000  0.393357571
     0.250000000  0.875000000  0.500000000
     0.500000000  0.000000000  0.500000000
     0.505352635  0.874050091  0.603468464
     0.254435942  0.999945993  0.610580361
     0.251202628  0.875053228  0.720254585
     0.499796288  0.999915440  0.707646178
     0.250000000  0.125000000  0.286715143
     0.500000000  0.250000000  0.286715143
     0.500000000  0.125000000  0.393357571
     0.250000000  0.250000000  0.393357571
     0.250000000  0.125000000  0.500000000
     0.500000000  0.250000000  0.500000000
     0.505145781  0.126010419  0.603544229
     0.254595883  0.250075072  0.610565488
     0.251028099  0.124891695  0.720213445
     0.500814183  0.249568033  0.707723553
     0.250000000  0.375000000  0.286715143
     0.500000000  0.500000000  0.286715143
     0.500000000  0.375000000  0.393357571
     0.250000000  0.500000000  0.393357571
     0.250000000  0.375000000  0.500000000
     0.500000000  0.500000000  0.500000000
     0.505601844  0.377121886  0.605816929
     0.254646139  0.500024254  0.610662545
     0.250551609  0.374837838  0.720205805
     0.501341897  0.499204801  0.712387173
     0.750000000  0.750000000  0.244946144
     0.750000000  0.750000000  0.328484141
     0.097918341  0.625000000  0.286715143
     0.902081659  0.625000000  0.286715143
     0.000000000  0.750000000  0.351588572
     0.000000000  0.750000000  0.435126570
     0.847918341  0.625000000  0.393357571
     0.152081659  0.625000000  0.393357571
     0.750000000  0.750000000  0.458231001
     0.750000000  0.750000000  0.541768999
     0.097918341  0.625000000  0.500000000
     0.902081659  0.625000000  0.500000000
     0.000626092  0.750113689  0.565484745
     0.999910379  0.749820023  0.649331054
     0.850835850  0.625264287  0.606686637
     0.150515716  0.625133038  0.607237511
     0.753672970  0.750605563  0.671630404
     0.749165123  0.749000832  0.755398970
     0.094623114  0.625040265  0.719103098
     0.906655591  0.624234650  0.720030195
     0.750000000  0.000000000  0.244946144
     0.750000000  0.000000000  0.328484141
     0.097918341  0.875000000  0.286715143
     0.902081659  0.875000000  0.286715143
     0.000000000  0.000000000  0.351588572
     0.000000000  0.000000000  0.435126570
     0.847918341  0.875000000  0.393357571
     0.152081659  0.875000000  0.393357571
     0.750000000  0.000000000  0.458231001
     0.750000000  0.000000000  0.541768999
     0.097918341  0.875000000  0.500000000
     0.902081659  0.875000000  0.500000000
     0.000613937  0.999957793  0.565489414
     0.000196112  0.999978663  0.649287765
     0.850577079  0.875422959  0.606996582
     0.150433785  0.874782828  0.607295622
     0.751000011  0.999931848  0.671903622
     0.750343968  0.999763415  0.755681063
     0.094393223  0.874557595  0.718852708
     0.906630409  0.874960706  0.719475168
     0.750000000  0.250000000  0.244946144
     0.750000000  0.250000000  0.328484141
     0.097918341  0.125000000  0.286715143
     0.902081659  0.125000000  0.286715143
     0.000000000  0.250000000  0.351588572
     0.000000000  0.250000000  0.435126570
     0.847918341  0.125000000  0.393357571
     0.152081659  0.125000000  0.393357571
     0.750000000  0.250000000  0.458231001
     0.750000000  0.250000000  0.541768999
     0.097918341  0.125000000  0.500000000
     0.902081659  0.125000000  0.500000000
     0.000573522  0.249883206  0.565486086
     0.000003515  0.250100765  0.649322956
     0.850518614  0.124643890  0.607046525
     0.150363849  0.125010387  0.607185197
     0.753259908  0.249570440  0.671650901
     0.749449496  0.250560984  0.755344736
     0.094270921  0.125242329  0.718999360
     0.906559281  0.124885494  0.719352111
     0.750000000  0.500000000  0.244946144
     0.750000000  0.500000000  0.328484141
     0.097918341  0.375000000  0.286715143
     0.902081659  0.375000000  0.286715143
     0.000000000  0.500000000  0.351588572
     0.000000000  0.500000000  0.435126570
     0.847918341  0.375000000  0.393357571
     0.152081659  0.375000000  0.393357571
     0.750000000  0.500000000  0.458231001
     0.750000000  0.500000000  0.541768999
     0.097918341  0.375000000  0.500000000
     0.902081659  0.375000000  0.500000000
     0.000747355  0.499995321  0.565471556
     0.000140261  0.500003586  0.649274572
     0.850804446  0.374665427  0.606710816
     0.150497013  0.374994821  0.607204774
     0.755664255  0.500040167  0.671524324
     0.739483425  0.499798225  0.755540430
     0.094509411  0.374928322  0.719046824
     0.906648207  0.375620293  0.720021837
     0.250000000  0.750000000  0.244946144
     0.250000000  0.750000000  0.328484141
     0.597918341  0.625000000  0.286715143
     0.402081659  0.625000000  0.286715143
     0.500000000  0.750000000  0.351588572
     0.500000000  0.750000000  0.435126570
     0.347918341  0.625000000  0.393357571
     0.652081659  0.625000000  0.393357571
     0.250000000  0.750000000  0.458231001
     0.250000000  0.750000000  0.541768999
     0.597918341  0.625000000  0.500000000
     0.402081659  0.625000000  0.500000000
     0.500789225  0.748768313  0.565318478
     0.498185474  0.751276209  0.648353632
     0.350035782  0.624911785  0.607065004
     0.651239398  0.625149950  0.607691438
     0.251653081  0.749539301  0.671823558
     0.250638909  0.749972619  0.755684023
     0.597129962  0.629429843  0.714285556
     0.408120558  0.625627373  0.720259622
     0.250000000  0.000000000  0.244946144
     0.250000000  0.000000000  0.328484141
     0.597918341  0.875000000  0.286715143
     0.402081659  0.875000000  0.286715143
     0.500000000  0.000000000  0.351588572
     0.500000000  0.000000000  0.435126570
     0.347918341  0.875000000  0.393357571
     0.652081659  0.875000000  0.393357571
     0.250000000  0.000000000  0.458231001
     0.250000000  0.000000000  0.541768999
     0.597918341  0.875000000  0.500000000
     0.402081659  0.875000000  0.500000000
     0.500385181  0.000029379  0.565019312
     0.500302552  0.999884714  0.648526709
     0.350095748  0.875208676  0.606825674
     0.650891458  0.874792342  0.607105641
     0.250403832  0.999930524  0.671722868
     0.249986486  0.999961815  0.755587609
     0.594605862  0.874834008  0.718496908
     0.406441061  0.875878980  0.718821175
     0.250000000  0.250000000  0.244946144
     0.250000000  0.250000000  0.328484141
     0.597918341  0.125000000  0.286715143
     0.402081659  0.125000000  0.286715143
     0.500000000  0.250000000  0.351588572
     0.500000000  0.250000000  0.435126570
     0.347918341  0.125000000  0.393357571
     0.652081659  0.125000000  0.393357571
     0.250000000  0.250000000  0.458231001
     0.250000000  0.250000000  0.541768999
     0.597918341  0.125000000  0.500000000
     0.402081659  0.125000000  0.500000000
     0.500709598  0.251330983  0.565405457
     0.498962597  0.248371129  0.648534170
     0.350130226  0.124827974  0.606900729
     0.650921385  0.125107867  0.607066716
     0.250478936  0.249919004  0.671722025
     0.250868793  0.250065699  0.755548788
     0.594630986  0.124654380  0.718521276
     0.406347373  0.124106128  0.718673571
     0.250000000  0.500000000  0.244946144
     0.250000000  0.500000000  0.328484141
     0.597918341  0.375000000  0.286715143
     0.402081659  0.375000000  0.286715143
     0.500000000  0.500000000  0.351588572
     0.500000000  0.500000000  0.435126570
     0.347918341  0.375000000  0.393357571
     0.652081659  0.375000000  0.393357571
     0.250000000  0.500000000  0.458231001
     0.250000000  0.500000000  0.541768999
     0.597918341  0.375000000  0.500000000
     0.402081659  0.375000000  0.500000000
     0.500847536  0.499797340  0.565682438
     0.499713966  0.500374159  0.649875089
     0.350075528  0.374973917  0.607284093
     0.651177097  0.374955781  0.607739180
     0.250722793  0.500388594  0.671839203
     0.251643452  0.499887673  0.755615512
     0.596866483  0.371262585  0.714495445
     0.406971979  0.374004315  0.718325035

  ion indices of the primitive-cell ions
   primitive index   ion index
                 1           1
                 2           2
                 3           3
                 4           4
                 5           5
                 6           6
                 7           7
                 8           8
                 9           9
                10          10
                11          11
                12          12
                13          13
                14          14
                15          15
                16          16
                17          17
                18          18
                19          19
                20          20
                21          21
                22          22
                23          23
                24          24
                25          25
                26          26
                27          27
                28          28
                29          29
                30          30
                31          31
                32          32
                33          33
                34          34
                35          35
                36          36
                37          37
                38          38
                39          39
                40          40
                41          41
                42          42
                43          43
                44          44
                45          45
                46          46
                47          47
                48          48
                49          49
                50          50
                51          51
                52          52
                53          53
                54          54
                55          55
                56          56
                57          57
                58          58
                59          59
                60          60
                61          61
                62          62
                63          63
                64          64
                65          65
                66          66
                67          67
                68          68
                69          69
                70          70
                71          71
                72          72
                73          73
                74          74
                75          75
                76          76
                77          77
                78          78
                79          79
                80          80
                81          81
                82          82
                83          83
                84          84
                85          85
                86          86
                87          87
                88          88
                89          89
                90          90
                91          91
                92          92
                93          93
                94          94
                95          95
                96          96
                97          97
                98          98
                99          99
               100         100
               101         101
               102         102
               103         103
               104         104
               105         105
               106         106
               107         107
               108         108
               109         109
               110         110
               111         111
               112         112
               113         113
               114         114
               115         115
               116         116
               117         117
               118         118
               119         119
               120         120
               121         121
               122         122
               123         123
               124         124
               125         125
               126         126
               127         127
               128         128
               129         129
               130         130
               131         131
               132         132
               133         133
               134         134
               135         135
               136         136
               137         137
               138         138
               139         139
               140         140
               141         141
               142         142
               143         143
               144         144
               145         145
               146         146
               147         147
               148         148
               149         149
               150         150
               151         151
               152         152
               153         153
               154         154
               155         155
               156         156
               157         157
               158         158
               159         159
               160         160
               161         161
               162         162
               163         163
               164         164
               165         165
               166         166
               167         167
               168         168
               169         169
               170         170
               171         171
               172         172
               173         173
               174         174
               175         175
               176         176
               177         177
               178         178
               179         179
               180         180
               181         181
               182         182
               183         183
               184         184
               185         185
               186         186
               187         187
               188         188
               189         189
               190         190
               191         191
               192         192
               193         193
               194         194
               195         195
               196         196
               197         197
               198         198
               199         199
               200         200
               201         201
               202         202
               203         203
               204         204
               205         205
               206         206
               207         207
               208         208
               209         209
               210         210
               211         211
               212         212
               213         213
               214         214
               215         215
               216         216
               217         217
               218         218
               219         219
               220         220
               221         221
               222         222
               223         223
               224         224
               225         225
               226         226
               227         227
               228         228
               229         229
               230         230
               231         231
               232         232
               233         233
               234         234
               235         235
               236         236
               237         237
               238         238
               239         239
               240         240
               241         241
               242         242
               243         243

----------------------------------------------------------------------------------------



 KPOINTS: pymatgen v2020.8.13 with grid density = 

Automatic generation of k-mesh.
 Grid dimensions read from file:
 generate k-points for:    2    2    1

 Generating k-lattice:

  Cartesian coordinates                     Fractional coordinates (reciprocal lattice)
     0.038281534  0.000000000  0.000000000     0.500000000  0.000000000  0.000000000
     0.000000000  0.042210838  0.000000000     0.000000000  0.500000000  0.000000000
     0.000000000  0.000000000  0.032659486     0.000000000  0.000000000  1.000000000

  Length of vectors
     0.038281534  0.042210838  0.032659486

  Shift w.r.t. Gamma in fractional coordinates (k-lattice)
     0.000000000  0.000000000  0.000000000

 
 Subroutine IBZKPT returns following result:
 ===========================================
 
 Found      4 irreducible k-points:
 
 Following reciprocal coordinates:
            Coordinates               Weight
  0.000000  0.000000  0.000000      1.000000
  0.500000  0.000000  0.000000      1.000000
  0.000000  0.500000  0.000000      1.000000
  0.500000  0.500000  0.000000      1.000000
 
 Following cartesian coordinates:
            Coordinates               Weight
  0.000000  0.000000  0.000000      1.000000
  0.038282  0.000000  0.000000      1.000000
  0.000000  0.042211  0.000000      1.000000
  0.038282  0.042211  0.000000      1.000000
 
 
 Subroutine IBZKPT_HF returns following result:
 ==============================================
 
 Found      4 k-points in 1st BZ
 the following      4 k-points will be used (e.g. in the exchange kernel)
 Following reciprocal coordinates:   # in IRBZ
  0.000000  0.000000  0.000000    0.25000000   1 t-inv F
  0.500000  0.000000  0.000000    0.25000000   2 t-inv F
  0.000000  0.500000  0.000000    0.25000000   3 t-inv F
  0.500000  0.500000  0.000000    0.25000000   4 t-inv F


--------------------------------------------------------------------------------------------------------




 Dimension of arrays:
   k-points           NKPTS =      4   k-points in BZ     NKDIM =      4   number of bands    NBANDS=   1152
   number of dos      NEDOS =    301   number of ions     NIONS =    243
   non local maximal  LDIM  =      6   non local SUM 2l+1 LMDIM =     18
   total plane-waves  NPLWV = ******
   max r-space proj   IRMAX =      1   max aug-charges    IRDMAX=  21440
   dimension x,y,z NGX =   108 NGY =   96 NGZ =  250
   dimension x,y,z NGXF=   216 NGYF=  192 NGZF=  500
   support grid    NGXF=   216 NGYF=  192 NGZF=  500
   ions per type =               2   1  80 160
   NGX,Y,Z   is equivalent  to a cutoff of  13.75, 13.47, 13.57 a.u.
   NGXF,Y,Z  is equivalent  to a cutoff of  27.49, 26.95, 27.15 a.u.

 SYSTEM =  MgO-rocksalt                            
 POSCAR =   H  O Ti  O                             

--------------------------------------------------------------------------------------------------------


  energy-cutoff  :      600.00
  volume of cell :     4737.15
      direct lattice vectors                 reciprocal lattice vectors
    13.061127704  0.000000000  0.000000000     0.076563067  0.000000000  0.000000000
     0.000000000 11.845298948  0.000000000     0.000000000  0.084421677  0.000000000
     0.000000000  0.000000000 30.618975621     0.000000000  0.000000000  0.032659486

  length of vectors
    13.061127704 11.845298948 30.618975621     0.076563067  0.084421677  0.032659486



 k-points in units of 2pi/SCALE and weight: pymatgen v2020.8.13 with grid density = 
   0.00000000  0.00000000  0.00000000       0.250
   0.03828153  0.00000000  0.00000000       0.250
   0.00000000  0.04221084  0.00000000       0.250
   0.03828153  0.04221084  0.00000000       0.250

 k-points in reciprocal lattice and weights: pymatgen v2020.8.13 with grid density = 
   0.00000000  0.00000000  0.00000000       0.250
   0.50000000  0.00000000  0.00000000       0.250
   0.00000000  0.50000000  0.00000000       0.250
   0.50000000  0.50000000  0.00000000       0.250

 position of ions in fractional coordinates (direct lattice) 
   0.51262488  0.55018820  0.80170893
   0.61544258  0.49578999  0.78216838
   0.53870930  0.49186576  0.78214982
   0.75000000  0.62500000  0.28671514
   0.00000000  0.75000000  0.28671514
   0.00000000  0.62500000  0.39335757
   0.75000000  0.75000000  0.39335757
   0.75000000  0.62500000  0.50000000
   0.00000000  0.75000000  0.50000000
   0.00563876  0.62503506  0.60441681
   0.75489325  0.75010379  0.61024376
   0.75122887  0.62585411  0.71920681
   0.00032632  0.75025698  0.70865610
   0.75000000  0.87500000  0.28671514
   0.00000000  0.00000000  0.28671514
   0.00000000  0.87500000  0.39335757
   0.75000000  0.00000000  0.39335757
   0.75000000  0.87500000  0.50000000
   0.00000000  0.00000000  0.50000000
   0.00550393  0.87500890  0.60446884
   0.75414950  0.00001919  0.61051919
   0.75001880  0.87502385  0.72018433
   0.00043158  0.99990234  0.70860578
   0.75000000  0.12500000  0.28671514
   0.00000000  0.25000000  0.28671514
   0.00000000  0.12500000  0.39335757
   0.75000000  0.25000000  0.39335757
   0.75000000  0.12500000  0.50000000
   0.00000000  0.25000000  0.50000000
   0.00551011  0.12494047  0.60445722
   0.75464366  0.24980752  0.61021895
   0.74990545  0.12428259  0.72017714
   0.00039817  0.24956124  0.70863616
   0.75000000  0.37500000  0.28671514
   0.00000000  0.50000000  0.28671514
   0.00000000  0.37500000  0.39335757
   0.75000000  0.50000000  0.39335757
   0.75000000  0.37500000  0.50000000
   0.00000000  0.50000000  0.50000000
   0.00552464  0.37496732  0.60440321
   0.75515478  0.49995480  0.61043464
   0.75179803  0.37338885  0.71925583
   0.00110835  0.50005569  0.70859366
   0.25000000  0.62500000  0.28671514
   0.50000000  0.75000000  0.28671514
   0.50000000  0.62500000  0.39335757
   0.25000000  0.75000000  0.39335757
   0.25000000  0.62500000  0.50000000
   0.50000000  0.75000000  0.50000000
   0.50578311  0.62274309  0.60563321
   0.25487448  0.74990149  0.61053827
   0.25074984  0.62514395  0.72028269
   0.50097839  0.75019601  0.70744581
   0.25000000  0.87500000  0.28671514
   0.50000000  0.00000000  0.28671514
   0.50000000  0.87500000  0.39335757
   0.25000000  0.00000000  0.39335757
   0.25000000  0.87500000  0.50000000
   0.50000000  0.00000000  0.50000000
   0.50535263  0.87405009  0.60346846
   0.25443594  0.99994599  0.61058036
   0.25120263  0.87505323  0.72025459
   0.49979629  0.99991544  0.70764618
   0.25000000  0.12500000  0.28671514
   0.50000000  0.25000000  0.28671514
   0.50000000  0.12500000  0.39335757
   0.25000000  0.25000000  0.39335757
   0.25000000  0.12500000  0.50000000
   0.50000000  0.25000000  0.50000000
   0.50514578  0.12601042  0.60354423
   0.25459588  0.25007507  0.61056549
   0.25102810  0.12489170  0.72021345
   0.50081418  0.24956803  0.70772355
   0.25000000  0.37500000  0.28671514
   0.50000000  0.50000000  0.28671514
   0.50000000  0.37500000  0.39335757
   0.25000000  0.50000000  0.39335757
   0.25000000  0.37500000  0.50000000
   0.50000000  0.50000000  0.50000000
   0.50560184  0.37712189  0.60581693
   0.25464614  0.50002425  0.61066254
   0.25055161  0.37483784  0.72020581
   0.50134190  0.49920480  0.71238717
   0.75000000  0.75000000  0.24494614
   0.75000000  0.75000000  0.32848414
   0.09791834  0.62500000  0.28671514
   0.90208166  0.62500000  0.28671514
   0.00000000  0.75000000  0.35158857
   0.00000000  0.75000000  0.43512657
   0.84791834  0.62500000  0.39335757
   0.15208166  0.62500000  0.39335757
   0.75000000  0.75000000  0.45823100
   0.75000000  0.75000000  0.54176900
   0.09791834  0.62500000  0.50000000
   0.90208166  0.62500000  0.50000000
   0.00062609  0.75011369  0.56548475
   0.99991038  0.74982002  0.64933105
   0.85083585  0.62526429  0.60668664
   0.15051572  0.62513304  0.60723751
   0.75367297  0.75060556  0.67163040
   0.74916512  0.74900083  0.75539897
   0.09462311  0.62504026  0.71910310
   0.90665559  0.62423465  0.72003019
   0.75000000  0.00000000  0.24494614
   0.75000000  0.00000000  0.32848414
   0.09791834  0.87500000  0.28671514
   0.90208166  0.87500000  0.28671514
   0.00000000  0.00000000  0.35158857
   0.00000000  0.00000000  0.43512657
   0.84791834  0.87500000  0.39335757
   0.15208166  0.87500000  0.39335757
   0.75000000  0.00000000  0.45823100
   0.75000000  0.00000000  0.54176900
   0.09791834  0.87500000  0.50000000
   0.90208166  0.87500000  0.50000000
   0.00061394  0.99995779  0.56548941
   0.00019611  0.99997866  0.64928776
   0.85057708  0.87542296  0.60699658
   0.15043379  0.87478283  0.60729562
   0.75100001  0.99993185  0.67190362
   0.75034397  0.99976341  0.75568106
   0.09439322  0.87455760  0.71885271
   0.90663041  0.87496071  0.71947517
   0.75000000  0.25000000  0.24494614
   0.75000000  0.25000000  0.32848414
   0.09791834  0.12500000  0.28671514
   0.90208166  0.12500000  0.28671514
   0.00000000  0.25000000  0.35158857
   0.00000000  0.25000000  0.43512657
   0.84791834  0.12500000  0.39335757
   0.15208166  0.12500000  0.39335757
   0.75000000  0.25000000  0.45823100
   0.75000000  0.25000000  0.54176900
   0.09791834  0.12500000  0.50000000
   0.90208166  0.12500000  0.50000000
   0.00057352  0.24988321  0.56548609
   0.00000351  0.25010076  0.64932296
   0.85051861  0.12464389  0.60704653
   0.15036385  0.12501039  0.60718520
   0.75325991  0.24957044  0.67165090
   0.74944950  0.25056098  0.75534474
   0.09427092  0.12524233  0.71899936
   0.90655928  0.12488549  0.71935211
   0.75000000  0.50000000  0.24494614
   0.75000000  0.50000000  0.32848414
   0.09791834  0.37500000  0.28671514
   0.90208166  0.37500000  0.28671514
   0.00000000  0.50000000  0.35158857
   0.00000000  0.50000000  0.43512657
   0.84791834  0.37500000  0.39335757
   0.15208166  0.37500000  0.39335757
   0.75000000  0.50000000  0.45823100
   0.75000000  0.50000000  0.54176900
   0.09791834  0.37500000  0.50000000
   0.90208166  0.37500000  0.50000000
   0.00074736  0.49999532  0.56547156
   0.00014026  0.50000359  0.64927457
   0.85080445  0.37466543  0.60671082
   0.15049701  0.37499482  0.60720477
   0.75566425  0.50004017  0.67152432
   0.73948342  0.49979823  0.75554043
   0.09450941  0.37492832  0.71904682
   0.90664821  0.37562029  0.72002184
   0.25000000  0.75000000  0.24494614
   0.25000000  0.75000000  0.32848414
   0.59791834  0.62500000  0.28671514
   0.40208166  0.62500000  0.28671514
   0.50000000  0.75000000  0.35158857
   0.50000000  0.75000000  0.43512657
   0.34791834  0.62500000  0.39335757
   0.65208166  0.62500000  0.39335757
   0.25000000  0.75000000  0.45823100
   0.25000000  0.75000000  0.54176900
   0.59791834  0.62500000  0.50000000
   0.40208166  0.62500000  0.50000000
   0.50078923  0.74876831  0.56531848
   0.49818547  0.75127621  0.64835363
   0.35003578  0.62491178  0.60706500
   0.65123940  0.62514995  0.60769144
   0.25165308  0.74953930  0.67182356
   0.25063891  0.74997262  0.75568402
   0.59712996  0.62942984  0.71428556
   0.40812056  0.62562737  0.72025962
   0.25000000  0.00000000  0.24494614
   0.25000000  0.00000000  0.32848414
   0.59791834  0.87500000  0.28671514
   0.40208166  0.87500000  0.28671514
   0.50000000  0.00000000  0.35158857
   0.50000000  0.00000000  0.43512657
   0.34791834  0.87500000  0.39335757
   0.65208166  0.87500000  0.39335757
   0.25000000  0.00000000  0.45823100
   0.25000000  0.00000000  0.54176900
   0.59791834  0.87500000  0.50000000
   0.40208166  0.87500000  0.50000000
   0.50038518  0.00002938  0.56501931
   0.50030255  0.99988471  0.64852671
   0.35009575  0.87520868  0.60682567
   0.65089146  0.87479234  0.60710564
   0.25040383  0.99993052  0.67172287
   0.24998649  0.99996181  0.75558761
   0.59460586  0.87483401  0.71849691
   0.40644106  0.87587898  0.71882118
   0.25000000  0.25000000  0.24494614
   0.25000000  0.25000000  0.32848414
   0.59791834  0.12500000  0.28671514
   0.40208166  0.12500000  0.28671514
   0.50000000  0.25000000  0.35158857
   0.50000000  0.25000000  0.43512657
   0.34791834  0.12500000  0.39335757
   0.65208166  0.12500000  0.39335757
   0.25000000  0.25000000  0.45823100
   0.25000000  0.25000000  0.54176900
   0.59791834  0.12500000  0.50000000
   0.40208166  0.12500000  0.50000000
   0.50070960  0.25133098  0.56540546
   0.49896260  0.24837113  0.64853417
   0.35013023  0.12482797  0.60690073
   0.65092138  0.12510787  0.60706672
   0.25047894  0.24991900  0.67172203
   0.25086879  0.25006570  0.75554879
   0.59463099  0.12465438  0.71852128
   0.40634737  0.12410613  0.71867357
   0.25000000  0.50000000  0.24494614
   0.25000000  0.50000000  0.32848414
   0.59791834  0.37500000  0.28671514
   0.40208166  0.37500000  0.28671514
   0.50000000  0.50000000  0.35158857
   0.50000000  0.50000000  0.43512657
   0.34791834  0.37500000  0.39335757
   0.65208166  0.37500000  0.39335757
   0.25000000  0.50000000  0.45823100
   0.25000000  0.50000000  0.54176900
   0.59791834  0.37500000  0.50000000
   0.40208166  0.37500000  0.50000000
   0.50084754  0.49979734  0.56568244
   0.49971397  0.50037416  0.64987509
   0.35007553  0.37497392  0.60728409
   0.65117710  0.37495578  0.60773918
   0.25072279  0.50038859  0.67183920
   0.25164345  0.49988767  0.75561551
   0.59686648  0.37126259  0.71449544
   0.40697198  0.37400432  0.71832504

 position of ions in cartesian coordinates  (Angst):
   6.69545905  6.51714368 24.54750603
   8.03837414  5.87278060 23.94919462
   7.03615095  5.82629701 23.94862629
   9.79584578  7.40331184  8.77892396
   0.00000000  8.88397421  8.77892396
   0.00000000  7.40331184 12.04420588
   9.79584578  8.88397421 12.04420588
   9.79584578  7.40331184 15.30948781
   0.00000000  8.88397421 15.30948781
   0.07364853  7.40372715 18.50662353
   9.85975712  8.88520362 18.68503896
   9.81189619  7.41342899 22.02137580
   0.00426207  8.88701817 21.69832386
   9.79584578 10.36463658  8.77892396
   0.00000000  0.00000000  8.77892396
   0.00000000 10.36463658 12.04420588
   9.79584578  0.00000000 12.04420588
   9.79584578 10.36463658 15.30948781
   0.00000000  0.00000000 15.30948781
   0.07188758 10.36474201 18.50821676
   9.85004298  0.00022727 18.69347231
   9.79609134 10.36491907 22.05130655
   0.00563687 11.84414215 21.69678323
   9.79584578  1.48066237  8.77892396
   0.00000000  2.96132474  8.77892396
   0.00000000  1.48066237 12.04420588
   9.79584578  2.96132474 12.04420588
   9.79584578  1.48066237 15.30948781
   0.00000000  2.96132474 15.30948781
   0.07196820  1.47995725 18.50786081
   9.85649722  2.95904477 18.68427928
   9.79461084  1.47216447 22.05108625
   0.00520053  2.95612754 21.69771341
   9.79584578  4.44198711  8.77892396
   0.00000000  5.92264947  8.77892396
   0.00000000  4.44198711 12.04420588
   9.79584578  5.92264947 12.04420588
   9.79584578  4.44198711 15.30948781
   0.00000000  5.92264947 15.30948781
   0.07215807  4.44160006 18.50620725
   9.86317304  5.92211409 18.69088340
   9.81933004  4.42290259 22.02287665
   0.01447624  5.92330918 21.69641198
   3.26528193  7.40331184  8.77892396
   6.53056385  8.88397421  8.77892396
   6.53056385  7.40331184 12.04420588
   3.26528193  8.88397421 12.04420588
   3.26528193  7.40331184 15.30948781
   6.53056385  8.88397421 15.30948781
   6.60609775  7.37657812 18.54386841
   3.32894809  8.88280738 18.69405627
   3.27507568  7.40501703 22.05431802
   6.54334279  8.88629596 21.66126614
   3.26528193 10.36463658  8.77892396
   6.53056385  0.00000000  8.77892396
   6.53056385 10.36463658 12.04420588
   3.26528193  0.00000000 12.04420588
   3.26528193 10.36463658 15.30948781
   6.53056385  0.00000000 15.30948781
   6.60047530 10.35338463 18.47758618
   3.32322033 11.84465922 18.69534518
   3.28098960 10.36526708 22.05345758
   6.52790314 11.84429731 21.66740108
   3.26528193  1.48066237  8.77892396
   6.53056385  2.96132474  8.77892396
   6.53056385  1.48066237 12.04420588
   3.26528193  2.96132474 12.04420588
   3.26528193  1.48066237 15.30948781
   6.53056385  2.96132474 15.30948781
   6.59777356  1.49263109 18.47990603
   3.32530934  2.96221398 18.69488979
   3.27871006  1.47937947 22.05219792
   6.54119801  2.95620796 21.66977021
   3.26528193  4.44198711  8.77892396
   6.53056385  5.92264947  8.77892396
   6.53056385  4.44198711 12.04420588
   3.26528193  5.92264947 12.04420588
   3.26528193  4.44198711 15.30948781
   6.53056385  5.92264947 15.30948781
   6.60373025  4.46712149 18.54949377
   3.32596574  5.92293677 18.69786156
   3.27248656  4.44006625 22.05196399
   6.54809054  5.91323010 21.81256548
   9.79584578  8.88397421  7.50000000
   9.79584578  8.88397421 10.05784792
   1.27892396  7.40331184  8.77892396
  11.78220374  7.40331184  8.77892396
   0.00000000  8.88397421 10.76528193
   0.00000000  8.88397421 13.32312984
  11.07476974  7.40331184 12.04420588
   1.98635797  7.40331184 12.04420588
   9.79584578  8.88397421 14.03056385
   9.79584578  8.88397421 16.58841177
   1.27892396  7.40331184 15.30948781
  11.78220374  7.40331184 15.30948781
   0.00817747  8.88532089 17.31456362
  13.05995716  8.88184233 19.88185171
  11.11287569  7.40644240 18.57612333
   1.96590499  7.40488772 18.59299056
   9.84381891  8.89114729 20.56463496
   9.78494134  8.87213877 23.12954264
   1.23588457  7.40378879 22.01820022
  11.84194445  7.39424604 22.04658698
   9.79584578  0.00000000  7.50000000
   9.79584578  0.00000000 10.05784792
   1.27892396 10.36463658  8.77892396
  11.78220374 10.36463658  8.77892396
   0.00000000  0.00000000 10.76528193
   0.00000000  0.00000000 13.32312984
  11.07476974 10.36463658 12.04420588
   1.98635797 10.36463658 12.04420588
   9.79584578  0.00000000 14.03056385
   9.79584578  0.00000000 16.58841177
   1.27892396 10.36463658 15.30948781
  11.78220374 10.36463658 15.30948781
   0.00801871 11.84479899 17.31470658
   0.00256144 11.84504621 19.88052625
  11.10949585 10.36964666 18.58561355
   1.96483488 10.36206412 18.59476986
   9.80890704 11.84449167 20.57300064
   9.80033839 11.84249653 23.13818005
   1.23288194 10.35939616 22.01053355
  11.84161556 10.36417113 22.02959264
   9.79584578  2.96132474  7.50000000
   9.79584578  2.96132474 10.05784792
   1.27892396  1.48066237  8.77892396
  11.78220374  1.48066237  8.77892396
   0.00000000  2.96132474 10.76528193
   0.00000000  2.96132474 13.32312984
  11.07476974  1.48066237 12.04420588
   1.98635797  1.48066237 12.04420588
   9.79584578  2.96132474 14.03056385
   9.79584578  2.96132474 16.58841177
   1.27892396  1.48066237 15.30948781
  11.78220374  1.48066237 15.30948781
   0.00749084  2.95994128 17.31460467
   0.00004591  2.96251832 19.88160377
  11.10873223  1.47644414 18.58714275
   1.96392143  1.48078540 18.59138875
   9.83842385  2.95623647 20.56526256
   9.78865557  2.96796976 23.12788205
   1.23128454  1.48353283 22.01502387
  11.84068654  1.47930601 22.02582476
   9.79584578  5.92264947  7.50000000
   9.79584578  5.92264947 10.05784792
   1.27892396  4.44198711  8.77892396
  11.78220374  4.44198711  8.77892396
   0.00000000  5.92264947 10.76528193
   0.00000000  5.92264947 13.32312984
  11.07476974  4.44198711 12.04420588
   1.98635797  4.44198711 12.04420588
   9.79584578  5.92264947 14.03056385
   9.79584578  5.92264947 16.58841177
   1.27892396  4.44198711 15.30948781
  11.78220374  4.44198711 15.30948781
   0.00976130  5.92259405 17.31415980
   0.00183196  5.92269195 19.88012228
  11.11246552  4.43802399 18.57686370
   1.96566070  4.44192576 18.59198817
   9.86982733  5.92312527 20.56138690
   9.65848744  5.92025939 23.13387400
   1.23439948  4.44113806 22.01647718
  11.84184802  4.44933466 22.04633109
   3.26528193  8.88397421  7.50000000
   3.26528193  8.88397421 10.05784792
   7.80948781  7.40331184  8.77892396
   5.25163989  7.40331184  8.77892396
   6.53056385  8.88397421 10.76528193
   6.53056385  8.88397421 13.32312984
   4.54420588  7.40331184 12.04420588
   8.51692182  7.40331184 12.04420588
   3.26528193  8.88397421 14.03056385
   3.26528193  8.88397421 16.58841177
   7.80948781  7.40331184 15.30948781
   5.25163989  7.40331184 15.30948781
   6.54087202  8.86938451 17.30947271
   6.50686410  8.89909129 19.85192404
   4.57186205  7.40226691 18.58770856
   8.50592095  7.40508804 18.60688931
   3.28687303  8.87851709 20.57054914
   3.27362680  8.88364988 23.13827068
   7.79919069  7.45578465 21.87069203
   5.33051473  7.41074326 22.05361180
   3.26528193  0.00000000  7.50000000
   3.26528193  0.00000000 10.05784792
   7.80948781 10.36463658  8.77892396
   5.25163989 10.36463658  8.77892396
   6.53056385  0.00000000 10.76528193
   6.53056385  0.00000000 13.32312984
[...]
      5.251640  4.441987 15.309488            0           0           0  
      6.541634  5.920249 17.320617            0           0           0  
      6.526828  5.927082 19.898510            0           0           0  
      4.572381  4.441678 18.594417            0           0           0  
      8.505107  4.441463 18.608351            0           0           0  
      3.274722  5.927252 20.571028            0           0           0  
      3.286747  5.921319 23.136173            0           0           0  
      7.795749  4.397716 21.877119            0           0           0  
      5.315513  4.430193 21.994377            0           0           0  

   9 f  =    5.036632 THz    31.646094 2PiTHz  168.003971 cm-1    20.829828 meV
             X         Y         Z           dx          dy          dz
      6.695459  6.517144 24.547506     0.209366    0.313240   -0.113496  
      8.038374  5.872781 23.949195     0.125749    0.124650   -0.101559  
      7.036151  5.826297 23.948626     0.455891    0.764657   -0.104706  
      9.795846  7.403312  8.778924            0           0           0  
      0.000000  8.883974  8.778924            0           0           0  
      0.000000  7.403312 12.044206            0           0           0  
      9.795846  8.883974 12.044206            0           0           0  
      9.795846  7.403312 15.309488            0           0           0  
      0.000000  8.883974 15.309488            0           0           0  
      0.073649  7.403727 18.506624            0           0           0  
      9.859757  8.885204 18.685039            0           0           0  
      9.811896  7.413429 22.021376            0           0           0  
      0.004262  8.887018 21.698324            0           0           0  
      9.795846 10.364637  8.778924            0           0           0  
      0.000000  0.000000  8.778924            0           0           0  
      0.000000 10.364637 12.044206            0           0           0  
      9.795846  0.000000 12.044206            0           0           0  
      9.795846 10.364637 15.309488            0           0           0  
      0.000000  0.000000 15.309488            0           0           0  
      0.071888 10.364742 18.508217            0           0           0  
      9.850043  0.000227 18.693472            0           0           0  
      9.796091 10.364919 22.051307            0           0           0  
      0.005637 11.844142 21.696783            0           0           0  
      9.795846  1.480662  8.778924            0           0           0  
      0.000000  2.961325  8.778924            0           0           0  
      0.000000  1.480662 12.044206            0           0           0  
      9.795846  2.961325 12.044206            0           0           0  
      9.795846  1.480662 15.309488            0           0           0  
      0.000000  2.961325 15.309488            0           0           0  
      0.071968  1.479957 18.507861            0           0           0  
      9.856497  2.959045 18.684279            0           0           0  
      9.794611  1.472164 22.051086            0           0           0  
      0.005201  2.956128 21.697713            0           0           0  
      9.795846  4.441987  8.778924            0           0           0  
      0.000000  5.922649  8.778924            0           0           0  
      0.000000  4.441987 12.044206            0           0           0  
      9.795846  5.922649 12.044206            0           0           0  
      9.795846  4.441987 15.309488            0           0           0  
      0.000000  5.922649 15.309488            0           0           0  
      0.072158  4.441600 18.506207            0           0           0  
      9.863173  5.922114 18.690883            0           0           0  
      9.819330  4.422903 22.022877            0           0           0  
      0.014476  5.923309 21.696412            0           0           0  
      3.265282  7.403312  8.778924            0           0           0  
      6.530564  8.883974  8.778924            0           0           0  
      6.530564  7.403312 12.044206            0           0           0  
      3.265282  8.883974 12.044206            0           0           0  
      3.265282  7.403312 15.309488            0           0           0  
      6.530564  8.883974 15.309488            0           0           0  
      6.606098  7.376578 18.543868            0           0           0  
      3.328948  8.882807 18.694056            0           0           0  
      3.275076  7.405017 22.054318            0           0           0  
      6.543343  8.886296 21.661266            0           0           0  
      3.265282 10.364637  8.778924            0           0           0  
      6.530564  0.000000  8.778924            0           0           0  
      6.530564 10.364637 12.044206            0           0           0  
      3.265282  0.000000 12.044206            0           0           0  
      3.265282 10.364637 15.309488            0           0           0  
      6.530564  0.000000 15.309488            0           0           0  
      6.600475 10.353385 18.477586            0           0           0  
      3.323220 11.844659 18.695345            0           0           0  
      3.280990 10.365267 22.053458            0           0           0  
      6.527903 11.844297 21.667401            0           0           0  
      3.265282  1.480662  8.778924            0           0           0  
      6.530564  2.961325  8.778924            0           0           0  
      6.530564  1.480662 12.044206            0           0           0  
      3.265282  2.961325 12.044206            0           0           0  
      3.265282  1.480662 15.309488            0           0           0  
      6.530564  2.961325 15.309488            0           0           0  
      6.597774  1.492631 18.479906            0           0           0  
      3.325309  2.962214 18.694890            0           0           0  
      3.278710  1.479379 22.052198            0           0           0  
      6.541198  2.956208 21.669770            0           0           0  
      3.265282  4.441987  8.778924            0           0           0  
      6.530564  5.922649  8.778924            0           0           0  
      6.530564  4.441987 12.044206            0           0           0  
      3.265282  5.922649 12.044206            0           0           0  
      3.265282  4.441987 15.309488            0           0           0  
      6.530564  5.922649 15.309488            0           0           0  
      6.603730  4.467121 18.549494            0           0           0  
      3.325966  5.922937 18.697862            0           0           0  
      3.272487  4.440066 22.051964            0           0           0  
      6.548091  5.913230 21.812565            0           0           0  
      9.795846  8.883974  7.500000            0           0           0  
      9.795846  8.883974 10.057848            0           0           0  
      1.278924  7.403312  8.778924            0           0           0  
     11.782204  7.403312  8.778924            0           0           0  
      0.000000  8.883974 10.765282            0           0           0  
      0.000000  8.883974 13.323130            0           0           0  
     11.074770  7.403312 12.044206            0           0           0  
      1.986358  7.403312 12.044206            0           0           0  
      9.795846  8.883974 14.030564            0           0           0  
      9.795846  8.883974 16.588412            0           0           0  
      1.278924  7.403312 15.309488            0           0           0  
     11.782204  7.403312 15.309488            0           0           0  
      0.008177  8.885321 17.314564            0           0           0  
     13.059957  8.881842 19.881852            0           0           0  
     11.112876  7.406442 18.576123            0           0           0  
      1.965905  7.404888 18.592991            0           0           0  
      9.843819  8.891147 20.564635            0           0           0  
      9.784941  8.872139 23.129543            0           0           0  
      1.235885  7.403789 22.018200            0           0           0  
     11.841944  7.394246 22.046587            0           0           0  
      9.795846  0.000000  7.500000            0           0           0  
      9.795846  0.000000 10.057848            0           0           0  
      1.278924 10.364637  8.778924            0           0           0  
     11.782204 10.364637  8.778924            0           0           0  
      0.000000  0.000000 10.765282            0           0           0  
      0.000000  0.000000 13.323130            0           0           0  
     11.074770 10.364637 12.044206            0           0           0  
      1.986358 10.364637 12.044206            0           0           0  
      9.795846  0.000000 14.030564            0           0           0  
      9.795846  0.000000 16.588412            0           0           0  
      1.278924 10.364637 15.309488            0           0           0  
     11.782204 10.364637 15.309488            0           0           0  
      0.008019 11.844799 17.314707            0           0           0  
      0.002561 11.845046 19.880526            0           0           0  
     11.109496 10.369647 18.585614            0           0           0  
      1.964835 10.362064 18.594770            0           0           0  
      9.808907 11.844492 20.573001            0           0           0  
      9.800338 11.842497 23.138180            0           0           0  
      1.232882 10.359396 22.010534            0           0           0  
     11.841616 10.364171 22.029593            0           0           0  
      9.795846  2.961325  7.500000            0           0           0  
      9.795846  2.961325 10.057848            0           0           0  
      1.278924  1.480662  8.778924            0           0           0  
     11.782204  1.480662  8.778924            0           0           0  
      0.000000  2.961325 10.765282            0           0           0  
      0.000000  2.961325 13.323130            0           0           0  
     11.074770  1.480662 12.044206            0           0           0  
      1.986358  1.480662 12.044206            0           0           0  
      9.795846  2.961325 14.030564            0           0           0  
      9.795846  2.961325 16.588412            0           0           0  
      1.278924  1.480662 15.309488            0           0           0  
     11.782204  1.480662 15.309488            0           0           0  
      0.007491  2.959941 17.314605            0           0           0  
      0.000046  2.962518 19.881604            0           0           0  
     11.108732  1.476444 18.587143            0           0           0  
      1.963921  1.480785 18.591389            0           0           0  
      9.838424  2.956236 20.565263            0           0           0  
      9.788656  2.967970 23.127882            0           0           0  
      1.231285  1.483533 22.015024            0           0           0  
     11.840687  1.479306 22.025825            0           0           0  
      9.795846  5.922649  7.500000            0           0           0  
      9.795846  5.922649 10.057848            0           0           0  
      1.278924  4.441987  8.778924            0           0           0  
     11.782204  4.441987  8.778924            0           0           0  
      0.000000  5.922649 10.765282            0           0           0  
      0.000000  5.922649 13.323130            0           0           0  
     11.074770  4.441987 12.044206            0           0           0  
      1.986358  4.441987 12.044206            0           0           0  
      9.795846  5.922649 14.030564            0           0           0  
      9.795846  5.922649 16.588412            0           0           0  
      1.278924  4.441987 15.309488            0           0           0  
     11.782204  4.441987 15.309488            0           0           0  
      0.009761  5.922594 17.314160            0           0           0  
      0.001832  5.922692 19.880122            0           0           0  
     11.112466  4.438024 18.576864            0           0           0  
      1.965661  4.441926 18.591988            0           0           0  
      9.869827  5.923125 20.561387            0           0           0  
      9.658487  5.920259 23.133874            0           0           0  
      1.234399  4.441138 22.016477            0           0           0  
     11.841848  4.449335 22.046331            0           0           0  
      3.265282  8.883974  7.500000            0           0           0  
      3.265282  8.883974 10.057848            0           0           0  
      7.809488  7.403312  8.778924            0           0           0  
      5.251640  7.403312  8.778924            0           0           0  
      6.530564  8.883974 10.765282            0           0           0  
      6.530564  8.883974 13.323130            0           0           0  
      4.544206  7.403312 12.044206            0           0           0  
      8.516922  7.403312 12.044206            0           0           0  
      3.265282  8.883974 14.030564            0           0           0  
      3.265282  8.883974 16.588412            0           0           0  
      7.809488  7.403312 15.309488            0           0           0  
      5.251640  7.403312 15.309488            0           0           0  
      6.540872  8.869385 17.309473            0           0           0  
      6.506864  8.899091 19.851924            0           0           0  
      4.571862  7.402267 18.587709            0           0           0  
      8.505921  7.405088 18.606889            0           0           0  
      3.286873  8.878517 20.570549            0           0           0  
      3.273627  8.883650 23.138271            0           0           0  
      7.799191  7.455785 21.870692            0           0           0  
      5.330515  7.410743 22.053612            0           0           0  
      3.265282  0.000000  7.500000            0           0           0  
      3.265282  0.000000 10.057848            0           0           0  
      7.809488 10.364637  8.778924            0           0           0  
      5.251640 10.364637  8.778924            0           0           0  
      6.530564  0.000000 10.765282            0           0           0  
      6.530564  0.000000 13.323130            0           0           0  
      4.544206 10.364637 12.044206            0           0           0  
      8.516922 10.364637 12.044206            0           0           0  
      3.265282  0.000000 14.030564            0           0           0  
      3.265282  0.000000 16.588412            0           0           0  
      7.809488 10.364637 15.309488            0           0           0  
      5.251640 10.364637 15.309488            0           0           0  
      6.535595  0.000348 17.300313            0           0           0  
      6.534516 11.843933 19.857224            0           0           0  
      4.572645 10.367108 18.580381            0           0           0  
      8.501376 10.362177 18.588953            0           0           0  
      3.270556 11.844476 20.567466            0           0           0  
      3.265105 11.844847 23.135319            0           0           0  
      7.766223 10.362670 21.999639            0           0           0  
      5.308579 10.375048 22.009568            0           0           0  
      3.265282  2.961325  7.500000            0           0           0  
      3.265282  2.961325 10.057848            0           0           0  
      7.809488  1.480662  8.778924            0           0           0  
      5.251640  1.480662  8.778924            0           0           0  
      6.530564  2.961325 10.765282            0           0           0  
      6.530564  2.961325 13.323130            0           0           0  
      4.544206  1.480662 12.044206            0           0           0  
      8.516922  1.480662 12.044206            0           0           0  
      3.265282  2.961325 14.030564            0           0           0  
      3.265282  2.961325 16.588412            0           0           0  
      7.809488  1.480662 15.309488            0           0           0  
      5.251640  1.480662 15.309488            0           0           0  
      6.539832  2.977091 17.312136            0           0           0  
      6.517014  2.942030 19.857452            0           0           0  
      4.573096  1.478625 18.582679            0           0           0  
      8.501767  1.481940 18.587761            0           0           0  
      3.271537  2.960365 20.567440            0           0           0  
      3.276629  2.962103 23.134130            0           0           0  
      7.766551  1.476568 22.000385            0           0           0  
      5.307355  1.470074 22.005049            0           0           0  
      3.265282  5.922649  7.500000            0           0           0  
      3.265282  5.922649 10.057848            0           0           0  
      7.809488  4.441987  8.778924            0           0           0  
      5.251640  4.441987  8.778924            0           0           0  
      6.530564  5.922649 10.765282            0           0           0  
      6.530564  5.922649 13.323130            0           0           0  
      4.544206  4.441987 12.044206            0           0           0  
      8.516922  4.441987 12.044206            0           0           0  
      3.265282  5.922649 14.030564            0           0           0  
      3.265282  5.922649 16.588412            0           0           0  
      7.809488  4.441987 15.309488            0           0           0  
      5.251640  4.441987 15.309488            0           0           0  
      6.541634  5.920249 17.320617            0           0           0  
      6.526828  5.927082 19.898510            0           0           0  
      4.572381  4.441678 18.594417            0           0           0  
      8.505107  4.441463 18.608351            0           0           0  
      3.274722  5.927252 20.571028            0           0           0  
      3.286747  5.921319 23.136173            0           0           0  
      7.795749  4.397716 21.877119            0           0           0  
      5.315513  4.430193 21.994377            0           0           0  

 Finite differences POTIM=   1.0000000000000000E-002
     LOOP+:  cpu time    512.7664: real time    513.4984
    4ORBIT:  cpu time      0.0000: real time      0.0000

 total amount of memory used by VASP MPI-rank0   233475. kBytes
=======================================================================

   base      :      30000. kBytes
   nonl-proj :     123047. kBytes
   fftplans  :      12883. kBytes
   grid      :      20395. kBytes
   one-center:        482. kBytes
   wavefun   :      46668. kBytes

  
  
 General timing and accounting informations for this job:
 ========================================================
  
                  Total CPU time used (sec):     9289.531
                            User time (sec):     9181.136
                          System time (sec):      108.395
                         Elapsed time (sec):     9316.976
  
                   Maximum memory used (kb):      940768.
                   Average memory used (kb):          N/A
  
                          Minor page faults:     10117096
                          Major page faults:        12214
                 Voluntary context switches:        49014
