 vasp.6.3.0 20Jan22 (build Apr  1 2022 16:44:48) complex                         
 executed on        HPECrayEX_GCC date 2023.01.23  22:13:14
 running  512 mpi-ranks, with    1 threads/rank
 distrk:  each k-point on  512 cores,    1 groups
 distr:  one band on NCORE=   8 cores,   64 groups


--------------------------------------------------------------------------------------------------------


 INCAR:
   SYSTEM = MgO-rocksalt
   ISMEAR = 0
   SIGMA = 0.05
   EDIFF = 1E-8
   ALGO = ALL
   ISTART = 0
   IBRION = 5
   POTIM = 0.01
   NFREE = 2
   ISYM = 0
   DIPOL = 0.5 0.5 0.5
   IDIPOL = 3
   LDIPOL = .TRUE.
   GGA = MK
   LUSE_VDW = .TRUE.
   PARAM1 = 0.1234
   PARAM2 = 0.711357
   ZAB_VDW = -1.8867
   AGGAC = 0.0
   ENCUT = 600
   PREC = Accurate
   LASPH = .TRUE.
   LREAL = .FALSE.
   ISPIN = 1
   NELM = 200
   NELMIN = 8
   NCORE = 8
   KPAR = 1
   LWAVE = .FALSE.
   LCHARG = .FALSE.

 POTCAR:    PAW_PBE H 15Jun2001                   
 POTCAR:    PAW_PBE O 08Apr2002                   
 POTCAR:    PAW_PBE Mg_pv 13Apr2007               
 POTCAR:    PAW_PBE O 08Apr2002                   
 -----------------------------------------------------------------------------
|                                                                             |
|               ----> ADVICE to this user running VASP <----                  |
|                                                                             |
|     You have switched on vdW-DFT.                                           |
|     This routine was written and supplied by Jiri Klimes. We recommend      |
|     that you carefully read and cite the following publications:            |
|       J. Klimes, D.R. Bowler, A. Michelides                                 |
|          J. Phys.: Cond Matt. 22 022201 (2010)                              |
|       J. Klimes, D.R. Bowler, A. Michelides                                 |
|          Phys. Rev. B. 83, 195131 (2011)                                    |
|     and references therein.                                                 |
|                                                                             |
 -----------------------------------------------------------------------------

 POTCAR:    PAW_PBE H 15Jun2001                   
   SHA256 =  030f79b5d3ab3cf0e668861823c8fb652ff669f3e15e46930bd03bfd63a607b6 H/POTCAR              
   COPYR  = (c) Copyright 15Jun2001 Georg Kresse                                                    
   COPYR  = This file is part of the software VASP. Any use, copying, and all other rights are regul
   COPYR  = If you do not have a valid VASP license, you may not use, copy or distribute this file. 
   VRHFIN =H: ultrasoft test                                                                        
   LEXCH  = PE                                                                                      
   EATOM  =    12.4884 eV,    0.9179 Ry                                                             
                                                                                                    
   TITEL  = PAW_PBE H 15Jun2001                                                                     
   LULTRA =        F    use ultrasoft PP ?                                                          
   IUNSCR =        0    unscreen: 0-lin 1-nonlin 2-no                                               
   RPACOR =    0.000    partial core radius                                                         
   POMASS =    1.000; ZVAL   =    1.000    mass and valenz                                          
   RCORE  =    1.100    outmost cutoff radius                                                       
   RWIGS  =    0.700; RWIGS  =    0.370    wigner-seitz radius (au A)                               
   ENMAX  =  250.000; ENMIN  =  200.000 eV                                                          
   RCLOC  =    0.701    cutoff for local pot                                                        
   LCOR   =        T    correct aug charges                                                         
   LPAW   =        T    paw PP                                                                      
   EAUG   =  400.000                                                                                
   RMAX   =    1.123    core radius for proj-oper                                                   
   RAUG   =    1.200    factor for augmentation sphere                                              
   RDEP   =    1.112    radius for radial grids                                                     
   RDEPT  =    0.926    core radius for aug-charge                                                  
                                                                                                    
   Atomic configuration                                                                             
    2 entries                                                                                       
     n  l   j            E        occ.                                                              
     1  0  0.50        -6.4927   1.0000                                                             
     2  1  0.50        -3.4015   0.0000                                                             
   Description                                                                                      
     l       E           TYP  RCUT    TYP  RCUT                                                     
     0     -6.4927494     23  1.100                                                                 
     0      6.8029130     23  1.100                                                                 
     1     -4.0817478     23  1.100                                                                 
  local pseudopotential read in
  atomic valenz-charges read in
  non local Contribution for L=           0  read in
    real space projection operators read in
  non local Contribution for L=           0  read in
    real space projection operators read in
  non local Contribution for L=           1  read in
    real space projection operators read in
    PAW grid and wavefunctions read in

   number of l-projection  operators is LMAX  =           3
   number of lm-projection operators is LMMAX =           5

 POTCAR:    PAW_PBE O 08Apr2002                   
   SHA256 =  818f92134a0a090dccd8ba1447fa70422a3b330e708bb4f08108d8ae51209ddf O/POTCAR              
   COPYR  = (c) Copyright 08Apr2002 Georg Kresse                                                    
   COPYR  = This file is part of the software VASP. Any use, copying, and all other rights are regul
   COPYR  = If you do not have a valid VASP license, you may not use, copy or distribute this file. 
   VRHFIN =O: s2p4                                                                                  
   LEXCH  = PE                                                                                      
   EATOM  =   432.3788 eV,   31.7789 Ry                                                             
                                                                                                    
   TITEL  = PAW_PBE O 08Apr2002                                                                     
   LULTRA =        F    use ultrasoft PP ?                                                          
   IUNSCR =        1    unscreen: 0-lin 1-nonlin 2-no                                               
   RPACOR =    1.200    partial core radius                                                         
   POMASS =   16.000; ZVAL   =    6.000    mass and valenz                                          
   RCORE  =    1.520    outmost cutoff radius                                                       
   RWIGS  =    1.550; RWIGS  =    0.820    wigner-seitz radius (au A)                               
   ENMAX  =  400.000; ENMIN  =  300.000 eV                                                          
   ICORE  =        2    local potential                                                             
   LCOR   =        T    correct aug charges                                                         
   LPAW   =        T    paw PP                                                                      
   EAUG   =  605.392                                                                                
   DEXC   =    0.000                                                                                
   RMAX   =    1.553    core radius for proj-oper                                                   
   RAUG   =    1.300    factor for augmentation sphere                                              
   RDEP   =    1.550    radius for radial grids                                                     
   RDEPT  =    1.329    core radius for aug-charge                                                  
                                                                                                    
   Atomic configuration                                                                             
    4 entries                                                                                       
     n  l   j            E        occ.                                                              
     1  0  0.50      -514.6923   2.0000                                                             
     2  0  0.50       -23.9615   2.0000                                                             
     2  1  0.50        -9.0305   4.0000                                                             
     3  2  1.50        -9.5241   0.0000                                                             
   Description                                                                                      
     l       E           TYP  RCUT    TYP  RCUT                                                     
     0    -23.9615318     23  1.200                                                                 
     0     -9.5240782     23  1.200                                                                 
     1     -9.0304911     23  1.520                                                                 
     1      8.1634956     23  1.520                                                                 
     2     -9.5240782      7  1.500                                                                 
  local pseudopotential read in
  partial core-charges read in
  partial kinetic energy density read in
  kinetic energy density of atom read in
  atomic valenz-charges read in
  non local Contribution for L=           0  read in
    real space projection operators read in
  non local Contribution for L=           0  read in
    real space projection operators read in
  non local Contribution for L=           1  read in
    real space projection operators read in
  non local Contribution for L=           1  read in
    real space projection operators read in
    PAW grid and wavefunctions read in

   number of l-projection  operators is LMAX  =           4
   number of lm-projection operators is LMMAX =           8

 POTCAR:    PAW_PBE Mg_pv 13Apr2007               
   SHA256 =  f474ac0dd33840b9ae76c01d57fea79fdf77cdfbb07d5ade72c65f83c709b62b Mg_pv/POTCAR          
   COPYR  = (c) Copyright 13Apr2007 Georg Kresse                                                    
   COPYR  = This file is part of the software VASP. Any use, copying, and all other rights are regul
   COPYR  = If you do not have a valid VASP license, you may not use, copy or distribute this file. 
   VRHFIN =Mg: p6s2                                                                                 
   LEXCH  = PE                                                                                      
   EATOM  =  1056.7344 eV,   77.6678 Ry                                                             
                                                                                                    
   TITEL  = PAW_PBE Mg_pv 13Apr2007                                                                 
   LULTRA =        F    use ultrasoft PP ?                                                          
   IUNSCR =        1    unscreen: 0-lin 1-nonlin 2-no                                               
   RPACOR =    1.500    partial core radius                                                         
   POMASS =   24.305; ZVAL   =    8.000    mass and valenz                                          
   RCORE  =    2.000    outmost cutoff radius                                                       
   RWIGS  =    2.000; RWIGS  =    1.058    wigner-seitz radius (au A)                               
   ENMAX  =  403.929; ENMIN  =  302.947 eV                                                          
   RCLOC  =    1.506    cutoff for local pot                                                        
   LCOR   =        T    correct aug charges                                                         
   LPAW   =        T    paw PP                                                                      
   EAUG   =  758.780                                                                                
   DEXC   =    0.000                                                                                
   RMAX   =    2.045    core radius for proj-oper                                                   
   RAUG   =    1.300    factor for augmentation sphere                                              
   RDEP   =    2.025    radius for radial grids                                                     
   RDEPT  =    1.557    core radius for aug-charge                                                  
                                                                                                    
   Atomic configuration                                                                             
    5 entries                                                                                       
     n  l   j            E        occ.                                                              
     1  0  0.50     -1259.6230   2.0000                                                             
     2  0  0.50       -79.8442   2.0000                                                             
     2  1  1.50       -46.6121   6.0000                                                             
     3  0  0.50        -4.7055   2.0000                                                             
     3  2  1.50        -1.3606   0.0000                                                             
   Description                                                                                      
     l       E           TYP  RCUT    TYP  RCUT                                                     
     1    -46.6121073     23  1.600                                                                 
     1      2.7211652     23  1.600                                                                 
     0     -4.7054661     23  2.000                                                                 
     0     61.2262170     23  2.000                                                                 
     2     -1.3605826     23  2.000                                                                 
  local pseudopotential read in
  partial core-charges read in
  partial kinetic energy density read in
  atomic valenz-charges read in
  non local Contribution for L=           1  read in
    real space projection operators read in
  non local Contribution for L=           1  read in
    real space projection operators read in
  non local Contribution for L=           0  read in
    real space projection operators read in
  non local Contribution for L=           0  read in
    real space projection operators read in
  non local Contribution for L=           2  read in
    real space projection operators read in
    PAW grid and wavefunctions read in

   number of l-projection  operators is LMAX  =           5
   number of lm-projection operators is LMMAX =          13

 POTCAR:    PAW_PBE O 08Apr2002                   
   SHA256 =  818f92134a0a090dccd8ba1447fa70422a3b330e708bb4f08108d8ae51209ddf O/POTCAR              
   COPYR  = (c) Copyright 08Apr2002 Georg Kresse                                                    
   COPYR  = This file is part of the software VASP. Any use, copying, and all other rights are regul
   COPYR  = If you do not have a valid VASP license, you may not use, copy or distribute this file. 
   VRHFIN =O: s2p4                                                                                  
   LEXCH  = PE                                                                                      
   EATOM  =   432.3788 eV,   31.7789 Ry                                                             
                                                                                                    
   TITEL  = PAW_PBE O 08Apr2002                                                                     
   LULTRA =        F    use ultrasoft PP ?                                                          
   IUNSCR =        1    unscreen: 0-lin 1-nonlin 2-no                                               
   RPACOR =    1.200    partial core radius                                                         
   POMASS =   16.000; ZVAL   =    6.000    mass and valenz                                          
   RCORE  =    1.520    outmost cutoff radius                                                       
   RWIGS  =    1.550; RWIGS  =    0.820    wigner-seitz radius (au A)                               
   ENMAX  =  400.000; ENMIN  =  300.000 eV                                                          
   ICORE  =        2    local potential                                                             
   LCOR   =        T    correct aug charges                                                         
   LPAW   =        T    paw PP                                                                      
   EAUG   =  605.392                                                                                
   DEXC   =    0.000                                                                                
   RMAX   =    1.553    core radius for proj-oper                                                   
   RAUG   =    1.300    factor for augmentation sphere                                              
   RDEP   =    1.550    radius for radial grids                                                     
   RDEPT  =    1.329    core radius for aug-charge                                                  
                                                                                                    
   Atomic configuration                                                                             
    4 entries                                                                                       
     n  l   j            E        occ.                                                              
     1  0  0.50      -514.6923   2.0000                                                             
     2  0  0.50       -23.9615   2.0000                                                             
     2  1  0.50        -9.0305   4.0000                                                             
     3  2  1.50        -9.5241   0.0000                                                             
   Description                                                                                      
     l       E           TYP  RCUT    TYP  RCUT                                                     
     0    -23.9615318     23  1.200                                                                 
     0     -9.5240782     23  1.200                                                                 
     1     -9.0304911     23  1.520                                                                 
     1      8.1634956     23  1.520                                                                 
     2     -9.5240782      7  1.500                                                                 
  local pseudopotential read in
  partial core-charges read in
  partial kinetic energy density read in
  kinetic energy density of atom read in
  atomic valenz-charges read in
  non local Contribution for L=           0  read in
    real space projection operators read in
  non local Contribution for L=           0  read in
    real space projection operators read in
  non local Contribution for L=           1  read in
    real space projection operators read in
  non local Contribution for L=           1  read in
    real space projection operators read in
    PAW grid and wavefunctions read in

   number of l-projection  operators is LMAX  =           4
   number of lm-projection operators is LMMAX =           8

 -----------------------------------------------------------------------------
|                                                                             |
|               ----> ADVICE to this user running VASP <----                  |
|                                                                             |
|     You have a (more or less) 'large supercell' and for larger cells it     |
|     might be more efficient to use real-space projection operators.         |
|     Therefore, try LREAL= Auto in the INCAR file.                           |
|     Mind: For very accurate calculation, you might also keep the            |
|     reciprocal projection scheme (i.e. LREAL=.FALSE.).                      |
|                                                                             |
 -----------------------------------------------------------------------------

 -----------------------------------------------------------------------------
|                                                                             |
|               ----> ADVICE to this user running VASP <----                  |
|                                                                             |
|     You enforced a specific xc type in the INCAR file but a different       |
|     type was found in the POTCAR file.                                      |
|     I HOPE YOU KNOW WHAT YOU ARE DOING!                                     |
|                                                                             |
 -----------------------------------------------------------------------------

  PAW_PBE H 15Jun2001                   :
 energy of atom  1       EATOM=  -12.4884
 kinetic energy error for atom=    0.0004 (will be added to EATOM!!)
  PAW_PBE O 08Apr2002                   :
 energy of atom  2       EATOM= -432.3788
 kinetic energy error for atom=    0.0168 (will be added to EATOM!!)
  PAW_PBE Mg_pv 13Apr2007               :
 energy of atom  3       EATOM=-1056.7344
 kinetic energy error for atom=    0.0221 (will be added to EATOM!!)
  PAW_PBE O 08Apr2002                   :
 energy of atom  4       EATOM= -432.3788
 kinetic energy error for atom=    0.0168 (will be added to EATOM!!)


 POSCAR:  H  O Mg  O
  positions in direct lattice
  No initial velocities read in
 exchange correlation table for  LEXCH =       43
   RHO(1)=    0.500       N(1)  =     2000
   RHO(2)=  100.500       N(2)  =     4000



--------------------------------------------------------------------------------------------------------


 ion  position               nearest neighbor table
   1  0.605  0.554  0.771-   3 0.97
   2  0.508  0.673  0.728-   3 1.01
   3  0.501  0.571  0.752-   1 0.97   2 1.01  19 2.21
   4  0.250  0.000  0.352-  36 2.11  38 2.11  39 2.11  46 2.11  55 2.11
   5  0.500  0.250  0.352-  37 2.11  38 2.11  39 2.11  47 2.11  54 2.11
   6  0.250  0.250  0.451-  38 2.11  37 2.11  36 2.11  44 2.11  53 2.11  42 2.11
   7  0.500  0.000  0.451-  39 2.11  37 2.11  36 2.11  45 2.11  52 2.11  43 2.12
   8  0.250  0.000  0.550-  42 2.11  43 2.11  50 2.11  59 2.11  36 2.12  40 2.14
   9  0.500  0.251  0.550-  51 2.11  42 2.11  58 2.11  43 2.12  37 2.12  41 2.13
  10  0.249  0.250  0.648-  57 2.10  42 2.11  40 2.11  48 2.11  41 2.12
  11  0.500  0.002  0.648-  41 2.07  49 2.09  43 2.10  40 2.12  56 2.12
  12  0.250  0.500  0.352-  44 2.11  38 2.11  46 2.11  47 2.11  63 2.11
  13  0.500  0.750  0.352-  45 2.11  39 2.11  46 2.11  47 2.11  62 2.11
  14  0.250  0.750  0.451-  46 2.11  44 2.11  45 2.11  36 2.11  61 2.11  50 2.12
  15  0.500  0.500  0.451-  47 2.11  44 2.11  45 2.11  37 2.11  60 2.11  51 2.14
  16  0.251  0.500  0.550-  51 2.10  48 2.10  42 2.11  50 2.11  67 2.12  44 2.13
  17  0.500  0.749  0.550-  51 2.10  50 2.10  66 2.11  43 2.11  45 2.13  49 2.19
  18  0.248  0.750  0.648-  65 2.09  50 2.09  48 2.11  40 2.11  49 2.14
  19  0.499  0.493  0.653-  41 2.07  48 2.12  64 2.14  51 2.19   3 2.21  49 2.21
  20  0.750  0.000  0.352-  52 2.11  39 2.11  54 2.11  55 2.11  62 2.11
  21  0.000  0.250  0.352-  53 2.11  38 2.11  54 2.11  55 2.11  63 2.11
  22  0.750  0.250  0.451-  54 2.11  52 2.11  53 2.11  37 2.11  60 2.11  58 2.11
  23  0.000  0.000  0.451-  55 2.11  52 2.11  53 2.11  36 2.11  61 2.11  59 2.11
  24  0.750  0.000  0.550-  58 2.11  43 2.11  59 2.11  66 2.11  52 2.12  56 2.14
  25  0.000  0.250  0.550-  42 2.11  67 2.11  58 2.11  59 2.11  53 2.11  57 2.14
  26  0.751  0.250  0.648-  58 2.10  57 2.10  56 2.11  64 2.12  41 2.12
  27  0.001  0.001  0.648-  40 2.10  59 2.10  57 2.10  56 2.11  65 2.11
  28  0.750  0.500  0.352-  60 2.11  54 2.11  47 2.11  62 2.11  63 2.11
  29  0.000  0.750  0.352-  61 2.11  55 2.11  46 2.11  62 2.11  63 2.11
  30  0.750  0.750  0.451-  62 2.11  52 2.11  60 2.11  61 2.11  45 2.11  66 2.12
  31  0.000  0.500  0.451-  67 2.11  63 2.11  60 2.11  61 2.11  44 2.11  53 2.11
  32  0.749  0.500  0.550-  51 2.10  58 2.11  66 2.11  67 2.12  60 2.13  64 2.13
  33  0.001  0.750  0.550-  67 2.11  59 2.11  61 2.11  50 2.11  66 2.12  65 2.14
  34  0.753  0.751  0.647-  66 2.08  65 2.09  56 2.11  64 2.12  49 2.14
  35  0.001  0.500  0.648-  48 2.09  64 2.10  67 2.10  57 2.11  65 2.12
  36  0.250  0.000  0.451-   4 2.11   6 2.11   7 2.11  14 2.11  23 2.11   8 2.12
  37  0.500  0.250  0.451-   5 2.11   6 2.11   7 2.11  15 2.11  22 2.11   9 2.12
  38  0.250  0.250  0.352-   6 2.11   5 2.11   4 2.11  12 2.11  21 2.11
  39  0.500  0.000  0.352-   7 2.11   5 2.11   4 2.11  13 2.11  20 2.11
  40  0.250  0.000  0.650-  27 2.10  10 2.11  18 2.11  11 2.12   8 2.14
  41  0.501  0.248  0.650-  11 2.07  19 2.07  26 2.12  10 2.12   9 2.13
  42  0.250  0.250  0.550-   8 2.11  10 2.11  25 2.11   9 2.11   6 2.11  16 2.11
  43  0.500  0.999  0.550-  11 2.10  24 2.11   8 2.11  17 2.11   7 2.12   9 2.12
  44  0.250  0.500  0.451-  12 2.11   6 2.11  14 2.11  15 2.11  31 2.11  16 2.13
  45  0.500  0.750  0.451-  13 2.11   7 2.11  14 2.11  15 2.11  30 2.11  17 2.13
  46  0.250  0.750  0.352-  14 2.11  12 2.11  13 2.11   4 2.11  29 2.11
  47  0.500  0.500  0.352-  15 2.11  12 2.11  13 2.11   5 2.11  28 2.11
  48  0.248  0.500  0.649-  35 2.09  16 2.10  18 2.11  10 2.11  19 2.12
  49  0.501  0.755  0.653-  11 2.09  34 2.14  18 2.14  17 2.19  19 2.21
  50  0.251  0.750  0.550-  18 2.09  17 2.10   8 2.11  33 2.11  16 2.11  14 2.12
  51  0.500  0.501  0.551-  17 2.10  32 2.10  16 2.10   9 2.11  15 2.14  19 2.19
  52  0.750  0.000  0.451-  20 2.11   7 2.11  22 2.11  23 2.11  30 2.11  24 2.12
  53  0.000  0.250  0.451-  21 2.11   6 2.11  22 2.11  23 2.11  31 2.11  25 2.11
  54  0.750  0.250  0.352-  22 2.11  20 2.11  21 2.11   5 2.11  28 2.11
  55  0.000  0.000  0.352-  23 2.11  20 2.11  21 2.11   4 2.11  29 2.11
  56  0.751  0.000  0.650-  34 2.11  27 2.11  26 2.11  11 2.12  24 2.14
  57  0.000  0.250  0.650-  26 2.10  27 2.10  10 2.10  35 2.11  25 2.14
  58  0.750  0.250  0.550-  26 2.10  24 2.11  32 2.11   9 2.11  25 2.11  22 2.11
  59  0.000  1.000  0.549-  27 2.10  23 2.11  33 2.11  24 2.11   8 2.11  25 2.11
  60  0.750  0.500  0.451-  28 2.11  22 2.11  15 2.11  30 2.11  31 2.11  32 2.13
  61  0.000  0.750  0.451-  29 2.11  23 2.11  14 2.11  30 2.11  31 2.11  33 2.11
  62  0.750  0.750  0.352-  30 2.11  20 2.11  28 2.11  29 2.11  13 2.11
  63  0.000  0.500  0.352-  31 2.11  21 2.11  28 2.11  29 2.11  12 2.11
  64  0.752  0.500  0.650-  35 2.10  34 2.12  26 2.12  32 2.13  19 2.14
  65  0.000  0.751  0.650-  34 2.09  18 2.09  27 2.11  35 2.12  33 2.14
  66  0.750  0.750  0.550-  34 2.08  17 2.11  24 2.11  32 2.11  30 2.12  33 2.12
  67  1.000  0.500  0.549-  35 2.10  33 2.11  31 2.11  25 2.11  32 2.12  16 2.12


IMPORTANT INFORMATION: All symmetrisations will be switched off!
NOSYMM: (Re-)initialisation of all symmetry stuff for point group C_1.


----------------------------------------------------------------------------------------

                                     Primitive cell                                     

  volume of cell :    1519.6535

  direct lattice vectors                    reciprocal lattice vectors
     8.440582262  0.000000000  0.000000000     0.118475239  0.000000000  0.000000000
     0.000000000  8.440582262  0.000000000     0.000000000  0.118475239  0.000000000
     0.000000000  0.000000000 21.330436697     0.000000000  0.000000000  0.046881366

  length of vectors
     8.440582262  8.440582262 21.330436697     0.118475239  0.118475239  0.046881366

  position of ions in fractional coordinates (direct lattice)
     0.605158999  0.554067465  0.771204868
     0.508013591  0.673270021  0.727731706
     0.501310769  0.570779158  0.752330931
     0.250000000  0.000000000  0.351610242
     0.500000000  0.250000000  0.351610242
     0.250000000  0.250000000  0.450536747
     0.500000000  0.000000000  0.450536747
     0.250443671  0.000234700  0.549863667
     0.500127418  0.250726857  0.550140190
     0.249370171  0.249928275  0.648256506
     0.500218927  0.002231511  0.648240720
     0.250000000  0.500000000  0.351610242
     0.500000000  0.750000000  0.351610242
     0.250000000  0.750000000  0.450536747
     0.500000000  0.500000000  0.450536747
     0.251172918  0.499809327  0.550275388
     0.500073628  0.748942861  0.550308960
     0.247902624  0.750078790  0.647985275
     0.498815322  0.492985253  0.653426090
     0.750000000  0.000000000  0.351610242
     0.000000000  0.250000000  0.351610242
     0.750000000  0.250000000  0.450536747
     0.000000000  0.000000000  0.450536747
     0.750058423  0.000380019  0.549745321
     0.000396353  0.250266217  0.549684030
     0.751379424  0.249603600  0.647940336
     0.000599586  0.000539546  0.648052127
     0.750000000  0.500000000  0.351610242
     0.000000000  0.750000000  0.351610242
     0.750000000  0.750000000  0.450536747
     0.000000000  0.500000000  0.450536747
     0.749211491  0.499736173  0.550345284
     0.000556679  0.749778358  0.549553159
     0.753229513  0.750753423  0.647099760
     0.000900244  0.499611865  0.647878654
     0.250000000  0.000000000  0.450536747
     0.500000000  0.250000000  0.450536747
     0.250000000  0.250000000  0.351610242
     0.500000000  0.000000000  0.351610242
     0.249634776  0.000068177  0.649965239
     0.500514592  0.247666295  0.649906933
     0.250257006  0.249639082  0.549524704
     0.500318584  0.999347322  0.549772013
     0.250000000  0.500000000  0.450536747
     0.500000000  0.750000000  0.450536747
     0.250000000  0.750000000  0.351610242
     0.500000000  0.500000000  0.351610242
     0.248443818  0.500103926  0.648918891
     0.500701594  0.754826085  0.652930165
     0.250960897  0.750325172  0.549844235
     0.500456640  0.500567019  0.550657647
     0.750000000  0.000000000  0.450536747
     0.000000000  0.250000000  0.450536747
     0.750000000  0.250000000  0.351610242
     0.000000000  0.000000000  0.351610242
     0.751185725  0.000051405  0.649974854
     0.000263684  0.249620988  0.649863965
     0.750220670  0.249895587  0.549601060
     0.000165847  0.999841486  0.549473429
     0.750000000  0.500000000  0.450536747
     0.000000000  0.750000000  0.450536747
     0.750000000  0.750000000  0.351610242
     0.000000000  0.500000000  0.351610242
     0.752363077  0.500240580  0.650180424
     0.000261912  0.750504440  0.649797873
     0.749595911  0.750117344  0.549777748
     0.999912299  0.500236878  0.549321759

  ion indices of the primitive-cell ions
   primitive index   ion index
                 1           1
                 2           2
                 3           3
                 4           4
                 5           5
                 6           6
                 7           7
                 8           8
                 9           9
                10          10
                11          11
                12          12
                13          13
                14          14
                15          15
                16          16
                17          17
                18          18
                19          19
                20          20
                21          21
                22          22
                23          23
                24          24
                25          25
                26          26
                27          27
                28          28
                29          29
                30          30
                31          31
                32          32
                33          33
                34          34
                35          35
                36          36
                37          37
                38          38
                39          39
                40          40
                41          41
                42          42
                43          43
                44          44
                45          45
                46          46
                47          47
                48          48
                49          49
                50          50
                51          51
                52          52
                53          53
                54          54
                55          55
                56          56
                57          57
                58          58
                59          59
                60          60
                61          61
                62          62
                63          63
                64          64
                65          65
                66          66
                67          67

----------------------------------------------------------------------------------------



 KPOINTS: pymatgen v2020.8.13 with grid density = 

Automatic generation of k-mesh.
 Grid dimensions read from file:
 generate k-points for:    2    2    1

 Generating k-lattice:

  Cartesian coordinates                     Fractional coordinates (reciprocal lattice)
     0.059237619  0.000000000  0.000000000     0.500000000  0.000000000  0.000000000
     0.000000000  0.059237619  0.000000000     0.000000000  0.500000000  0.000000000
     0.000000000  0.000000000  0.046881366     0.000000000  0.000000000  1.000000000

  Length of vectors
     0.059237619  0.059237619  0.046881366

  Shift w.r.t. Gamma in fractional coordinates (k-lattice)
     0.000000000  0.000000000  0.000000000

 
 Subroutine IBZKPT returns following result:
 ===========================================
 
 Found      4 irreducible k-points:
 
 Following reciprocal coordinates:
            Coordinates               Weight
  0.000000  0.000000  0.000000      1.000000
  0.500000  0.000000  0.000000      1.000000
  0.000000  0.500000  0.000000      1.000000
  0.500000  0.500000  0.000000      1.000000
 
 Following cartesian coordinates:
            Coordinates               Weight
  0.000000  0.000000  0.000000      1.000000
  0.059238  0.000000  0.000000      1.000000
  0.000000  0.059238  0.000000      1.000000
  0.059238  0.059238  0.000000      1.000000
 
 
 Subroutine IBZKPT_HF returns following result:
 ==============================================
 
 Found      4 k-points in 1st BZ
 the following      4 k-points will be used (e.g. in the exchange kernel)
 Following reciprocal coordinates:   # in IRBZ
  0.000000  0.000000  0.000000    0.25000000   1 t-inv F
  0.500000  0.000000  0.000000    0.25000000   2 t-inv F
  0.000000  0.500000  0.000000    0.25000000   3 t-inv F
  0.500000  0.500000  0.000000    0.25000000   4 t-inv F


--------------------------------------------------------------------------------------------------------




 Dimension of arrays:
   k-points           NKPTS =      4   k-points in BZ     NKDIM =      4   number of bands    NBANDS=    320
   number of dos      NEDOS =    301   number of ions     NIONS =     67
   non local maximal  LDIM  =      5   non local SUM 2l+1 LMDIM =     13
   total plane-waves  NPLWV = 882000
   max r-space proj   IRMAX =      1   max aug-charges    IRDMAX=  11637
   dimension x,y,z NGX =    70 NGY =   70 NGZ =  180
   dimension x,y,z NGXF=   140 NGYF=  140 NGZF=  360
   support grid    NGXF=   140 NGYF=  140 NGZF=  360
   ions per type =               2   1  32  32
   NGX,Y,Z   is equivalent  to a cutoff of  13.79, 13.79, 14.03 a.u.
   NGXF,Y,Z  is equivalent  to a cutoff of  27.57, 27.57, 28.06 a.u.

 SYSTEM =  MgO-rocksalt                            
 POSCAR =   H  O Mg  O                             

--------------------------------------------------------------------------------------------------------


  energy-cutoff  :      600.00
  volume of cell :     1519.65
      direct lattice vectors                 reciprocal lattice vectors
     8.440582262  0.000000000  0.000000000     0.118475239  0.000000000  0.000000000
     0.000000000  8.440582262  0.000000000     0.000000000  0.118475239  0.000000000
     0.000000000  0.000000000 21.330436697     0.000000000  0.000000000  0.046881366

  length of vectors
     8.440582262  8.440582262 21.330436697     0.118475239  0.118475239  0.046881366



 k-points in units of 2pi/SCALE and weight: pymatgen v2020.8.13 with grid density = 
   0.00000000  0.00000000  0.00000000       0.250
   0.05923762  0.00000000  0.00000000       0.250
   0.00000000  0.05923762  0.00000000       0.250
   0.05923762  0.05923762  0.00000000       0.250

 k-points in reciprocal lattice and weights: pymatgen v2020.8.13 with grid density = 
   0.00000000  0.00000000  0.00000000       0.250
   0.50000000  0.00000000  0.00000000       0.250
   0.00000000  0.50000000  0.00000000       0.250
   0.50000000  0.50000000  0.00000000       0.250

 position of ions in fractional coordinates (direct lattice) 
   0.60515900  0.55406747  0.77120487
   0.50801359  0.67327002  0.72773171
   0.50131077  0.57077916  0.75233093
   0.25000000  0.00000000  0.35161024
   0.50000000  0.25000000  0.35161024
   0.25000000  0.25000000  0.45053675
   0.50000000  0.00000000  0.45053675
   0.25044367  0.00023470  0.54986367
   0.50012742  0.25072686  0.55014019
   0.24937017  0.24992827  0.64825651
   0.50021893  0.00223151  0.64824072
   0.25000000  0.50000000  0.35161024
   0.50000000  0.75000000  0.35161024
   0.25000000  0.75000000  0.45053675
   0.50000000  0.50000000  0.45053675
   0.25117292  0.49980933  0.55027539
   0.50007363  0.74894286  0.55030896
   0.24790262  0.75007879  0.64798527
   0.49881532  0.49298525  0.65342609
   0.75000000  0.00000000  0.35161024
   0.00000000  0.25000000  0.35161024
   0.75000000  0.25000000  0.45053675
   0.00000000  0.00000000  0.45053675
   0.75005842  0.00038002  0.54974532
   0.00039635  0.25026622  0.54968403
   0.75137942  0.24960360  0.64794034
   0.00059959  0.00053955  0.64805213
   0.75000000  0.50000000  0.35161024
   0.00000000  0.75000000  0.35161024
   0.75000000  0.75000000  0.45053675
   0.00000000  0.50000000  0.45053675
   0.74921149  0.49973617  0.55034528
   0.00055668  0.74977836  0.54955316
   0.75322951  0.75075342  0.64709976
   0.00090024  0.49961186  0.64787865
   0.25000000  0.00000000  0.45053675
   0.50000000  0.25000000  0.45053675
   0.25000000  0.25000000  0.35161024
   0.50000000  0.00000000  0.35161024
   0.24963478  0.00006818  0.64996524
   0.50051459  0.24766630  0.64990693
   0.25025701  0.24963908  0.54952470
   0.50031858  0.99934732  0.54977201
   0.25000000  0.50000000  0.45053675
   0.50000000  0.75000000  0.45053675
   0.25000000  0.75000000  0.35161024
   0.50000000  0.50000000  0.35161024
   0.24844382  0.50010393  0.64891889
   0.50070159  0.75482609  0.65293017
   0.25096090  0.75032517  0.54984424
   0.50045664  0.50056702  0.55065765
   0.75000000  0.00000000  0.45053675
   0.00000000  0.25000000  0.45053675
   0.75000000  0.25000000  0.35161024
   0.00000000  0.00000000  0.35161024
   0.75118573  0.00005140  0.64997485
   0.00026368  0.24962099  0.64986396
   0.75022067  0.24989559  0.54960106
   0.00016585  0.99984149  0.54947343
   0.75000000  0.50000000  0.45053675
   0.00000000  0.75000000  0.45053675
   0.75000000  0.75000000  0.35161024
   0.00000000  0.50000000  0.35161024
   0.75236308  0.50024058  0.65018042
   0.00026191  0.75050444  0.64979787
   0.74959591  0.75011734  0.54977775
   0.99991230  0.50023688  0.54932176

 position of ions in cartesian coordinates  (Angst):
   5.10789431  4.67665202 16.45013661
   4.28793051  5.68279099 15.52283509
   4.23135478  4.81770844 16.04754729
   2.11014557  0.00000000  7.50000000
   4.22029113  2.11014557  7.50000000
   2.11014557  2.11014557  9.61014557
   4.22029113  0.00000000  9.61014557
   2.11389041  0.00198100 11.72883214
   4.22136661  2.11628066 11.73473050
   2.10482944  2.10954016 13.82759436
   4.22213900  0.01883525 13.82725764
   2.11014557  4.22029113  7.50000000
   4.22029113  6.33043670  7.50000000
   2.11014557  6.33043670  9.61014557
   4.22029113  4.22029113  9.61014557
   2.12004568  4.21868174 11.73761434
   4.22091259  6.32151383 11.73833044
   2.09244249  6.33110173 13.82180889
   4.21029176  4.16108258 13.93786385
   6.33043670  0.00000000  7.50000000
   0.00000000  2.11014557  7.50000000
   6.33043670  2.11014557  9.61014557
   0.00000000  0.00000000  9.61014557
   6.33092982  0.00320759 11.72630776
   0.00334545  2.11239260 11.72500041
   6.34207984  2.10679972 13.82085031
   0.00506085  0.00455408 13.82323487
   6.33043670  4.22029113  7.50000000
   0.00000000  6.33043670  7.50000000
   6.33043670  6.33043670  9.61014557
   0.00000000  4.22029113  9.61014557
   6.32378122  4.21806427 11.73910524
   0.00469870  6.32856591 11.72220887
   6.35769567  6.33679602 13.80292046
   0.00759858  4.21701505 13.81953461
   2.11014557  0.00000000  9.61014557
   4.22029113  2.11014557  9.61014557
   2.11014557  2.11014557  7.50000000
   4.22029113  0.00000000  7.50000000
   2.10706286  0.00057545 13.86404240
   4.22463459  2.09044774 13.86279870
   2.11231485  2.10709920 11.72160191
   4.22298017  8.43507328 11.72687712
   2.11014557  4.22029113  9.61014557
   4.22029113  6.33043670  9.61014557
   2.11014557  6.33043670  7.50000000
   4.22029113  4.22029113  7.50000000
   2.09701048  4.22116833 13.84172333
   4.22621299  6.37117166 13.92728556
   2.11825610  6.33318134 11.72841765
   4.22414544  4.22507710 11.74576808
   6.33043670  0.00000000  9.61014557
   0.00000000  2.11014557  9.61014557
   6.33043670  2.11014557  7.50000000
   0.00000000  0.00000000  7.50000000
   6.34044491  0.00043389 13.86424747
   0.00222565  2.10694649 13.86188216
   6.33229928  2.10926426 11.72323062
   0.00139985  8.43924431 11.72050820
   6.33043670  4.22029113  9.61014557
   0.00000000  6.33043670  9.61014557
   6.33043670  6.33043670  7.50000000
   0.00000000  4.22029113  7.50000000
   6.35038245  4.22232176 13.86863237
   0.00221069  6.33469446 13.86047239
   6.32702595  6.33142715 11.72699944
   8.43984201  4.22229052 11.71727301



--------------------------------------------------------------------------------------------------------

--------------------------------------- Iteration      FINAL  ---------------------------------------


--------------------OUTCAR has been truncated-------------------------


--------------------OUTCAR has been truncated-------------------------


--------------------OUTCAR has been truncated-------------------------


--------------------OUTCAR has been truncated-------------------------


--------------------OUTCAR has been truncated-------------------------


--------------------OUTCAR has been truncated-------------------------


--------------------OUTCAR has been truncated-------------------------


--------------------OUTCAR has been truncated-------------------------


--------------------OUTCAR has been truncated-------------------------


--------------------OUTCAR has been truncated-------------------------


  FORCE on cell =-STRESS in cart. coord.  units (eV):
  Direction    XX          YY          ZZ          XY          YZ          ZX
  --------------------------------------------------------------------------------------
  Alpha Z   899.39781   899.39781   899.39781
  Ewald  160669.07677160697.82071************    -9.89114   -23.32624    39.02712
  Hartree170905.36112170926.59813************    -2.17549     1.00499     8.47204
  E(xc)   -2492.54748 -2492.52913 -2492.60580    -0.03901    -0.24777     0.12900
  Local  ************************341445.76871     9.55993    12.07437   -37.23874
  n-local -2863.06652 -2862.86453 -2881.52209    -0.22079     0.28980     0.42226
  augment  1058.32339  1058.48837  1049.84742     0.16188     0.65262    -0.69373
  Kinetic  7453.27671  7455.66286  7498.10432     2.67430     9.50984   -10.43755
  Fock        0.00000     0.00000     0.00000     0.00000     0.00000     0.00000
  -------------------------------------------------------------------------------------
  Total     -28.91123   -28.44567    -2.45346     0.06968    -0.04239    -0.31961
  in kB     -30.48124   -29.99039    -2.58670     0.07346    -0.04469    -0.33696
  external pressure =      -21.02 kB  Pullay stress =        0.00 kB


 VOLUME and BASIS-vectors are now :
 -----------------------------------------------------------------------------
  energy-cutoff  :      600.00
  volume of cell :     1519.65
      direct lattice vectors                 reciprocal lattice vectors
     8.440582262  0.000000000  0.000000000     0.118475239  0.000000000  0.000000000
     0.000000000  8.440582262  0.000000000     0.000000000  0.118475239  0.000000000
     0.000000000  0.000000000 21.330436697     0.000000000  0.000000000  0.046881366

  length of vectors
     8.440582262  8.440582262 21.330436697     0.118475239  0.118475239  0.046881366


 FORCES acting on ions:
    Electron-Ion                     Ewald-Force                    Non-Local-Force
 -----------------------------------------------------------------------------------------------
   -.767E+02 0.145E+02 -.299E+03   0.837E+02 -.158E+02 0.303E+03   -.719E+01 0.136E+01 -.352E+01
   -.234E+01 -.686E+02 -.267E+03   0.250E+01 0.749E+02 0.263E+03   -.147E+00 -.614E+01 0.361E+01
   0.475E+02 0.277E+02 -.171E+04   -.840E+02 -.488E+02 0.171E+04   0.367E+02 0.209E+02 -.500E+01
   -.868E-01 0.875E-02 0.208E+04   0.902E-01 -.651E-02 -.208E+04   -.256E-02 -.157E-02 -.680E+01
   -.595E-03 -.222E-01 0.208E+04   0.221E-03 0.312E-01 -.208E+04   0.211E-03 -.679E-02 -.679E+01
   -.337E+00 -.913E-01 0.718E+03   0.351E+00 0.106E+00 -.718E+03   -.805E-02 -.874E-02 0.371E+00
   0.129E+00 -.889E-01 0.716E+03   -.140E+00 0.379E-01 -.717E+03   0.840E-02 0.372E-01 0.439E+00
   0.227E+01 -.647E+00 -.644E+03   -.222E+01 0.720E+00 0.645E+03   -.494E-01 -.765E-01 -.261E+00
   -.106E+00 0.361E+01 -.638E+03   0.637E-01 -.341E+01 0.639E+03   0.397E-01 -.195E+00 -.469E+00
   0.167E+02 0.186E+02 -.201E+04   -.170E+02 -.187E+02 0.200E+04   0.351E+00 0.330E-01 0.605E+01
   0.558E+00 -.106E+02 -.200E+04   -.625E+00 0.110E+02 0.200E+04   0.648E-01 -.404E+00 0.585E+01
   -.120E+00 -.643E-02 0.208E+04   0.128E+00 0.422E-02 -.208E+04   -.638E-02 0.155E-02 -.681E+01
   0.775E-02 0.183E-01 0.208E+04   -.864E-02 -.278E-01 -.208E+04   0.629E-03 0.723E-02 -.681E+01
   -.302E+00 0.405E-01 0.717E+03   0.414E+00 -.546E-01 -.717E+03   -.807E-01 0.854E-02 0.533E+00
   0.309E-01 0.146E+00 0.715E+03   -.881E-03 -.106E+00 -.715E+03   -.219E-01 -.307E-01 0.646E+00
   0.329E+01 0.845E+00 -.635E+03   -.306E+01 -.897E+00 0.636E+03   -.235E+00 0.537E-01 -.105E+01
   0.125E+00 -.290E+01 -.647E+03   -.196E+00 0.265E+01 0.646E+03   0.692E-01 0.255E+00 0.905E+00
   0.248E+02 -.218E+02 -.199E+04   -.258E+02 0.218E+02 0.198E+04   0.973E+00 -.154E-01 0.613E+01
   0.137E+01 0.305E+02 -.191E+04   -.169E+01 -.324E+02 0.191E+04   0.321E+00 0.189E+01 0.234E+01
   0.878E-01 0.117E-02 0.208E+04   -.902E-01 0.181E-02 -.208E+04   0.168E-02 -.218E-02 -.678E+01
   0.269E-02 0.119E-01 0.208E+04   -.117E-02 -.738E-02 -.208E+04   -.114E-02 -.321E-02 -.680E+01
   0.367E+00 -.170E+00 0.717E+03   -.361E+00 0.233E+00 -.718E+03   -.519E-02 -.436E-01 0.426E+00
   -.795E-01 -.130E+00 0.717E+03   0.109E+00 0.172E+00 -.718E+03   -.209E-01 -.305E-01 0.368E+00
   -.226E+01 -.881E+00 -.642E+03   0.221E+01 0.985E+00 0.643E+03   0.495E-01 -.108E+00 -.186E+00
   0.131E+00 0.275E+01 -.644E+03   -.902E-01 -.268E+01 0.644E+03   -.425E-01 -.672E-01 -.152E+00
   -.166E+02 0.179E+02 -.200E+04   0.169E+02 -.180E+02 0.200E+04   -.335E+00 0.160E+00 0.605E+01
   -.450E+00 -.404E+01 -.202E+04   0.503E+00 0.420E+01 0.202E+04   -.561E-01 -.166E+00 0.597E+01
   0.120E+00 0.175E-02 0.208E+04   -.128E+00 -.453E-02 -.208E+04   0.579E-02 0.200E-02 -.682E+01
   -.472E-02 -.135E-01 0.208E+04   0.703E-02 0.910E-02 -.208E+04   -.177E-02 0.307E-02 -.676E+01
   0.324E+00 0.115E+00 0.717E+03   -.411E+00 -.173E+00 -.717E+03   0.644E-01 0.412E-01 0.543E+00
   0.546E-03 0.171E+00 0.718E+03   -.187E-01 -.210E+00 -.718E+03   0.139E-01 0.285E-01 0.246E+00
   -.307E+01 0.109E+01 -.640E+03   0.283E+01 -.117E+01 0.641E+03   0.242E+00 0.818E-01 -.494E+00
   -.124E+00 -.297E+01 -.639E+03   0.193E+00 0.289E+01 0.639E+03   -.716E-01 0.794E-01 -.118E+00
   -.249E+02 -.212E+02 -.197E+04   0.259E+02 0.214E+02 0.197E+04   -.103E+01 -.207E+00 0.619E+01
   0.919E-01 0.487E+01 -.201E+04   0.636E-01 -.503E+01 0.200E+04   -.158E+00 0.156E+00 0.599E+01
   -.154E+00 0.137E+00 0.537E+03   0.140E+00 -.120E+00 -.537E+03   0.198E-01 -.267E-01 -.822E-01
   -.324E-01 -.150E-02 0.537E+03   0.148E-01 -.306E-01 -.537E+03   0.247E-01 0.423E-01 -.784E-01
   -.752E-01 -.291E-02 0.157E+04   0.757E-01 0.744E-02 -.157E+04   -.745E-03 -.629E-02 0.360E+01
   0.787E-02 0.306E-02 0.157E+04   -.114E-01 -.527E-02 -.157E+04   0.500E-02 0.313E-02 0.361E+01
   0.806E+01 -.562E+01 -.153E+04   -.781E+01 0.555E+01 0.153E+04   -.250E+00 0.664E-01 -.494E+01
   0.375E+00 0.270E+02 -.151E+04   -.369E+00 -.270E+02 0.151E+04   -.751E-02 0.590E-01 -.482E+01
   0.206E+01 0.229E+01 -.476E+03   -.206E+01 -.222E+01 0.475E+03   -.160E-02 -.725E-01 0.237E+00
   0.226E+00 -.244E+00 -.476E+03   -.238E+00 0.279E+00 0.476E+03   0.138E-01 -.319E-01 0.350E+00
   -.311E+00 -.997E-01 0.537E+03   0.237E+00 0.812E-01 -.537E+03   0.998E-01 0.279E-01 -.154E+00
   0.211E-01 -.699E-01 0.537E+03   -.331E-01 0.116E+00 -.536E+03   0.169E-01 -.602E-01 -.147E+00
   -.807E-01 0.116E-02 0.157E+04   0.906E-01 -.571E-02 -.157E+04   -.139E-01 0.632E-02 0.361E+01
   -.167E-02 -.185E-03 0.157E+04   0.290E-02 0.280E-02 -.157E+04   -.173E-02 -.373E-02 0.359E+01
   0.298E+02 0.799E+01 -.149E+04   -.293E+02 -.789E+01 0.150E+04   -.459E+00 -.103E+00 -.510E+01
   0.203E+01 -.374E+02 -.147E+04   -.211E+01 0.371E+02 0.147E+04   0.693E-01 0.341E+00 -.202E+01
   0.160E+01 -.248E+01 -.475E+03   -.167E+01 0.242E+01 0.474E+03   0.733E-01 0.618E-01 0.471E+00
   -.374E+00 -.278E+00 -.485E+03   0.339E+00 0.226E+00 0.486E+03   0.341E-01 0.439E-01 -.833E+00
   0.194E+00 0.985E-01 0.538E+03   -.204E+00 -.922E-01 -.538E+03   0.124E-01 -.120E-01 -.244E-01
   0.852E-01 0.207E+00 0.538E+03   -.938E-01 -.188E+00 -.538E+03   0.982E-02 -.283E-01 -.535E-01
   0.738E-01 -.128E-01 0.157E+04   -.752E-01 0.219E-01 -.157E+04   0.194E-02 -.127E-01 0.360E+01
   -.838E-02 -.342E-02 0.157E+04   0.112E-01 0.103E-01 -.157E+04   -.397E-02 -.952E-02 0.361E+01
   -.815E+01 -.650E+01 -.153E+04   0.791E+01 0.648E+01 0.153E+04   0.231E+00 0.208E-01 -.497E+01
   -.521E+00 0.639E+01 -.153E+04   0.532E+00 -.626E+01 0.154E+04   -.974E-02 -.120E+00 -.493E+01
   -.214E+01 0.187E+01 -.475E+03   0.216E+01 -.183E+01 0.475E+03   -.223E-01 -.459E-01 0.373E+00
   -.239E+00 -.100E+01 -.480E+03   0.256E+00 0.103E+01 0.479E+03   -.200E-01 -.349E-01 0.209E+00
   0.347E+00 -.491E-01 0.537E+03   -.289E+00 0.372E-01 -.536E+03   -.785E-01 0.188E-01 -.189E+00
   0.505E-01 -.229E+00 0.538E+03   -.709E-01 0.206E+00 -.538E+03   0.256E-01 0.331E-01 0.599E-01
   0.786E-01 0.106E-01 0.157E+04   -.896E-01 -.199E-01 -.157E+04   0.154E-01 0.130E-01 0.361E+01
   0.149E-02 0.460E-02 0.157E+04   -.313E-02 -.116E-01 -.157E+04   0.233E-02 0.971E-02 0.360E+01
   -.302E+02 0.942E+01 -.149E+04   0.296E+02 -.932E+01 0.150E+04   0.649E+00 -.102E+00 -.482E+01
   -.139E+01 -.700E+01 -.153E+04   0.146E+01 0.689E+01 0.153E+04   -.603E-01 0.118E+00 -.496E+01
   -.165E+01 -.205E+01 -.472E+03   0.175E+01 0.202E+01 0.471E+03   -.969E-01 0.350E-01 0.770E+00
   0.175E+00 0.117E+01 -.473E+03   -.137E+00 -.120E+01 0.473E+03   -.378E-01 0.319E-01 0.254E+00
 -----------------------------------------------------------------------------------------------
   -.297E+02 -.178E+02 0.195E+02   0.724E-12 -.171E-12 -.290E-11   0.297E+02 0.178E+02 -.195E+02


 POSITION                                       TOTAL-FORCE (eV/Angst)
 -----------------------------------------------------------------------------------
      5.10789      4.67665     16.45014        -0.182373      0.037322     -0.090996
      4.28793      5.68279     15.52284         0.010083      0.139413     -0.088253
      4.23135      4.81771     16.03755         0.161582     -0.179452      0.219226
      2.11015      0.00000      7.50000         0.000804      0.000645      0.318519
      4.22029      2.11015      7.50000        -0.000231      0.002144      0.316616
      2.11015      2.11015      9.61015         0.005713      0.006139      0.026776
      4.22029      0.00000      9.61015        -0.002720     -0.013677      0.046215
      2.11389      0.00198     11.72883        -0.000057     -0.003574     -0.000016
      4.22137      2.11628     11.73473        -0.002896      0.000100     -0.003029
      2.10483      2.10954     13.82759        -0.004785      0.000380     -0.006270
      4.22214      0.01884     13.82726        -0.001982     -0.005498     -0.009648
      2.11015      4.22029      7.50000         0.001730     -0.000672      0.320231
      4.22029      6.33044      7.50000        -0.000336     -0.002322      0.321477
      2.11015      6.33044      9.61015         0.031112     -0.005423      0.025924
      4.22029      4.22029      9.61015         0.007887      0.009144      0.062796
      2.12005      4.21868     11.73761        -0.003500      0.001267     -0.002966
      4.22091      6.32151     11.73833        -0.001879      0.002812      0.003017
      2.09244      6.33110     13.82181         0.000042     -0.001108     -0.010170
      4.21029      4.16108     13.93786         0.001379      0.006196     -0.020822
      6.33044      0.00000      7.50000        -0.000777      0.000787      0.314809
      0.00000      2.11015      7.50000         0.000295      0.001272      0.319718
      6.33044      2.11015      9.61015         0.000952      0.018752      0.023278
      0.00000      0.00000      9.61015         0.008629      0.011553      0.015412
      6.33093      0.00321     11.72631        -0.000704     -0.003789      0.003409
      0.00335      2.11239     11.72500        -0.001763      0.001911      0.000518
      6.34208      2.10680     13.82085         0.000233      0.000181     -0.004630
      0.00506      0.00455     13.82323        -0.002772      0.000528     -0.004321
      6.33044      4.22029      7.50000        -0.001779     -0.000786      0.323213
      0.00000      6.33044      7.50000         0.000450     -0.001296      0.311104
      6.33044      6.33044      9.61015        -0.022429     -0.016770      0.023173
      0.00000      4.22029      9.61015        -0.004310     -0.010834      0.042306
      6.32378      4.21806     11.73911         0.001489      0.001457     -0.002156
      0.00470      6.32857     11.72221        -0.001795     -0.000809      0.005872
      6.35770      6.33680     13.80292        -0.006139     -0.001335     -0.008426
      0.00760      4.21702     13.81953        -0.002107     -0.003173     -0.010759
      2.11015      0.00000      9.61015         0.005159     -0.009436      0.040955
      4.22029      2.11015      9.61015         0.006979      0.010237      0.072985
      2.11015      2.11015      7.50000        -0.000272     -0.001786     -0.403794
      4.22029      0.00000      7.50000         0.001354      0.000899     -0.401974
      2.10706      0.00058     13.86404        -0.001136      0.000356      0.007762
      4.22463      2.09045     13.86280        -0.001651     -0.003354      0.004213
      2.11231      2.10710     11.72160         0.002612      0.002327      0.006866
      4.22298      8.43507     11.72688         0.001675      0.002410     -0.003030
      2.11015      4.22029      9.61015         0.025982      0.009333      0.064238
      4.22029      6.33044      9.61015         0.004879     -0.014098      0.067221
      2.11015      6.33044      7.50000        -0.004046      0.001751     -0.401863
      4.22029      4.22029      7.50000        -0.000576     -0.001142     -0.406463
      2.09701      4.22117     13.84172        -0.008096     -0.003820      0.006361
      4.22621      6.37117     13.92729        -0.002620      0.019024     -0.021487
      2.11826      6.33318     11.72842        -0.005380      0.002608     -0.003708
      4.22415      4.22508     11.74577        -0.000915     -0.008845     -0.002903
      6.33044      0.00000      9.61015         0.002529     -0.005712      0.046042
      0.00000      2.11015      9.61015         0.001196     -0.009009      0.030423
      6.33044      2.11015      7.50000         0.000495     -0.003632     -0.403302
      0.00000      0.00000      7.50000        -0.001179     -0.002701     -0.400722
      6.34044      0.00043     13.86425        -0.004469     -0.000627      0.004747
      0.00223      2.10695     13.86188         0.000853      0.002840      0.006709
      6.33230      2.10926     11.72323        -0.005036     -0.000600      0.001342
      0.00140      8.43924     11.72051        -0.002439     -0.003009     -0.002849
      6.33044      4.22029      9.61015        -0.021046      0.006928      0.059411
      0.00000      6.33044      9.61015         0.005162      0.010341      0.051726
      6.33044      6.33044      7.50000         0.004365      0.003662     -0.401115
      0.00000      4.22029      7.50000         0.000618      0.002712     -0.403713
      6.35038      4.22232     13.86863         0.004835     -0.003536      0.000889
      0.00221      6.33469     13.86047         0.000845      0.000147      0.005268
      6.32703      6.33143     11.72700         0.001868      0.005636     -0.004976
      8.43984      4.22229     11.71727         0.000410     -0.001391      0.003595
 -----------------------------------------------------------------------------------
    total drift:                                0.005013      0.001564     -0.012818


--------------------------------------------------------------------------------------------------------



  FREE ENERGIE OF THE ION-ELECTRON SYSTEM (eV)
  ---------------------------------------------------
  free  energy   TOTEN  =      -277.95212156 eV

  energy  without entropy=     -277.95212156  energy(sigma->0) =     -277.95212156

 d Force =-0.1790939E-04[-0.438E-02, 0.435E-02]  d Energy = 0.8704839E-05-0.266E-04
 d Force =-0.3418986E+02[-0.342E+02,-0.341E+02]  d Ewald  =-0.3418981E+02-0.521E-04


--------------------------------------------------------------------------------------------------------


    POTLOK:  cpu time      2.5125: real time      2.5125


--------------------------------------------------------------------------------------------------------


 Finite differences progress:
  Degree of freedom:   9/  9
  Displacement:        2/  2
  Total:              18/ 18

 SECOND DERIVATIVES (NOT SYMMETRIZED)
 ------------------------------------
               1X          1Y          1Z          2X          2Y          2Z          3X          3Y          3Z 
  1X   -38.345103    6.150182  -17.921054    0.157072    0.422448   -0.131945   38.070430   -6.709960   18.143129
  1Y     6.139043   -4.393761    4.334275   -3.317775    0.247977   -1.216372   -3.290526    3.992735   -2.872560
  1Z   -17.900358    4.334361   -9.776414    1.860806    0.195636    0.656104   15.598314   -4.150331    8.784814
  2X     0.155052   -3.317055    1.859449   -5.623698   -1.397133   -0.454080    4.385789    4.556946   -1.233337
  2Y     0.421813    0.250135    0.195687   -1.397643  -25.795582   11.071786    0.817419   24.147034  -13.868149
  2Z    -0.131903   -1.217171    0.655692   -0.453947   11.059195   -8.385128    0.675146  -11.506355    8.789157
  3X    38.068924   -3.296639   15.620636    4.384095    0.814919    0.677922  -42.840780    2.848346  -16.651968
  3Y    -6.701925    3.988462   -4.152013    4.561499   24.146438  -11.521521    2.839628  -29.459068   18.003219
  3Z    18.127523   -2.870410    8.781052   -1.235041  -13.856899    8.786303  -16.631987   17.991546  -21.833055


 Eigenvectors and eigenvalues of the dynamical matrix
 ----------------------------------------------------


   1 f  =  111.820005 THz   702.585812 2PiTHz 3729.913879 cm-1   462.450174 meV
             X         Y         Z           dx          dy          dz
      5.107894  4.676652 16.450137     0.860165   -0.159576    0.416918  
      4.287931  5.682791 15.522835    -0.030037   -0.049327    0.014065  
      4.231355  4.817708 16.047547    -0.206806    0.052018   -0.108734  
      2.110146  0.000000  7.500000            0           0           0  
      4.220291  2.110146  7.500000            0           0           0  
      2.110146  2.110146  9.610146            0           0           0  
      4.220291  0.000000  9.610146            0           0           0  
      2.113890  0.001981 11.728832            0           0           0  
      4.221367  2.116281 11.734730            0           0           0  
      2.104829  2.109540 13.827594            0           0           0  
      4.222139  0.018835 13.827258            0           0           0  
      2.110146  4.220291  7.500000            0           0           0  
      4.220291  6.330437  7.500000            0           0           0  
      2.110146  6.330437  9.610146            0           0           0  
      4.220291  4.220291  9.610146            0           0           0  
      2.120046  4.218682 11.737614            0           0           0  
      4.220913  6.321514 11.738330            0           0           0  
      2.092442  6.331102 13.821809            0           0           0  
      4.210292  4.161083 13.937864            0           0           0  
      6.330437  0.000000  7.500000            0           0           0  
      0.000000  2.110146  7.500000            0           0           0  
      6.330437  2.110146  9.610146            0           0           0  
      0.000000  0.000000  9.610146            0           0           0  
      6.330930  0.003208 11.726308            0           0           0  
      0.003345  2.112393 11.725000            0           0           0  
      6.342080  2.106800 13.820850            0           0           0  
      0.005061  0.004554 13.823235            0           0           0  
      6.330437  4.220291  7.500000            0           0           0  
      0.000000  6.330437  7.500000            0           0           0  
      6.330437  6.330437  9.610146            0           0           0  
      0.000000  4.220291  9.610146            0           0           0  
      6.323781  4.218064 11.739105            0           0           0  
      0.004699  6.328566 11.722209            0           0           0  
      6.357696  6.336796 13.802920            0           0           0  
      0.007599  4.217015 13.819535            0           0           0  
      2.110146  0.000000  9.610146            0           0           0  
      4.220291  2.110146  9.610146            0           0           0  
      2.110146  2.110146  7.500000            0           0           0  
      4.220291  0.000000  7.500000            0           0           0  
      2.107063  0.000575 13.864042            0           0           0  
      4.224635  2.090448 13.862799            0           0           0  
      2.112315  2.107099 11.721602            0           0           0  
      4.222980  8.435073 11.726877            0           0           0  
      2.110146  4.220291  9.610146            0           0           0  
      4.220291  6.330437  9.610146            0           0           0  
      2.110146  6.330437  7.500000            0           0           0  
      4.220291  4.220291  7.500000            0           0           0  
      2.097010  4.221168 13.841723            0           0           0  
      4.226213  6.371172 13.927286            0           0           0  
      2.118256  6.333181 11.728418            0           0           0  
      4.224145  4.225077 11.745768            0           0           0  
      6.330437  0.000000  9.610146            0           0           0  
      0.000000  2.110146  9.610146            0           0           0  
      6.330437  2.110146  7.500000            0           0           0  
      0.000000  0.000000  7.500000            0           0           0  
      6.340445  0.000434 13.864247            0           0           0  
      0.002226  2.106946 13.861882            0           0           0  
      6.332299  2.109264 11.723231            0           0           0  
      0.001400  8.439244 11.720508            0           0           0  
      6.330437  4.220291  9.610146            0           0           0  
      0.000000  6.330437  9.610146            0           0           0  
      6.330437  6.330437  7.500000            0           0           0  
      0.000000  4.220291  7.500000            0           0           0  
      6.350382  4.222322 13.868632            0           0           0  
      0.002211  6.334694 13.860472            0           0           0  
      6.327026  6.331427 11.726999            0           0           0  
      8.439842  4.222291 11.717273            0           0           0  

   2 f  =   90.016555 THz   565.590695 2PiTHz 3002.629067 cm-1   372.278390 meV
             X         Y         Z           dx          dy          dz
      5.107894  4.676652 16.450137     0.058203   -0.028790    0.034644  
      4.287931  5.682791 15.522835     0.041811    0.869089   -0.424029  
      4.231355  4.817708 16.047547    -0.023067   -0.207033    0.119681  
      2.110146  0.000000  7.500000            0           0           0  
      4.220291  2.110146  7.500000            0           0           0  
      2.110146  2.110146  9.610146            0           0           0  
      4.220291  0.000000  9.610146            0           0           0  
      2.113890  0.001981 11.728832            0           0           0  
      4.221367  2.116281 11.734730            0           0           0  
      2.104829  2.109540 13.827594            0           0           0  
      4.222139  0.018835 13.827258            0           0           0  
      2.110146  4.220291  7.500000            0           0           0  
      4.220291  6.330437  7.500000            0           0           0  
      2.110146  6.330437  9.610146            0           0           0  
      4.220291  4.220291  9.610146            0           0           0  
      2.120046  4.218682 11.737614            0           0           0  
      4.220913  6.321514 11.738330            0           0           0  
      2.092442  6.331102 13.821809            0           0           0  
      4.210292  4.161083 13.937864            0           0           0  
      6.330437  0.000000  7.500000            0           0           0  
      0.000000  2.110146  7.500000            0           0           0  
      6.330437  2.110146  9.610146            0           0           0  
      0.000000  0.000000  9.610146            0           0           0  
      6.330930  0.003208 11.726308            0           0           0  
      0.003345  2.112393 11.725000            0           0           0  
      6.342080  2.106800 13.820850            0           0           0  
      0.005061  0.004554 13.823235            0           0           0  
      6.330437  4.220291  7.500000            0           0           0  
      0.000000  6.330437  7.500000            0           0           0  
      6.330437  6.330437  9.610146            0           0           0  
      0.000000  4.220291  9.610146            0           0           0  
      6.323781  4.218064 11.739105            0           0           0  
      0.004699  6.328566 11.722209            0           0           0  
      6.357696  6.336796 13.802920            0           0           0  
      0.007599  4.217015 13.819535            0           0           0  
      2.110146  0.000000  9.610146            0           0           0  
      4.220291  2.110146  9.610146            0           0           0  
      2.110146  2.110146  7.500000            0           0           0  
      4.220291  0.000000  7.500000            0           0           0  
      2.107063  0.000575 13.864042            0           0           0  
      4.224635  2.090448 13.862799            0           0           0  
      2.112315  2.107099 11.721602            0           0           0  
      4.222980  8.435073 11.726877            0           0           0  
      2.110146  4.220291  9.610146            0           0           0  
      4.220291  6.330437  9.610146            0           0           0  
      2.110146  6.330437  7.500000            0           0           0  
      4.220291  4.220291  7.500000            0           0           0  
      2.097010  4.221168 13.841723            0           0           0  
      4.226213  6.371172 13.927286            0           0           0  
      2.118256  6.333181 11.728418            0           0           0  
      4.224145  4.225077 11.745768            0           0           0  
      6.330437  0.000000  9.610146            0           0           0  
      0.000000  2.110146  9.610146            0           0           0  
      6.330437  2.110146  7.500000            0           0           0  
      0.000000  0.000000  7.500000            0           0           0  
      6.340445  0.000434 13.864247            0           0           0  
      0.002226  2.106946 13.861882            0           0           0  
      6.332299  2.109264 11.723231            0           0           0  
      0.001400  8.439244 11.720508            0           0           0  
      6.330437  4.220291  9.610146            0           0           0  
      0.000000  6.330437  9.610146            0           0           0  
      6.330437  6.330437  7.500000            0           0           0  
      0.000000  4.220291  7.500000            0           0           0  
      6.350382  4.222322 13.868632            0           0           0  
      0.002211  6.334694 13.860472            0           0           0  
      6.327026  6.331427 11.726999            0           0           0  
      8.439842  4.222291 11.717273            0           0           0  

   3 f  =   47.346388 THz   297.486132 2PiTHz 1579.305521 cm-1   195.808841 meV
             X         Y         Z           dx          dy          dz
      5.107894  4.676652 16.450137     0.178519    0.515919   -0.208245  
      4.287931  5.682791 15.522835     0.737611    0.059299    0.233151  
      4.231355  4.817708 16.047547    -0.202866   -0.123294   -0.017060  
      2.110146  0.000000  7.500000            0           0           0  
      4.220291  2.110146  7.500000            0           0           0  
      2.110146  2.110146  9.610146            0           0           0  
      4.220291  0.000000  9.610146            0           0           0  
      2.113890  0.001981 11.728832            0           0           0  
      4.221367  2.116281 11.734730            0           0           0  
      2.104829  2.109540 13.827594            0           0           0  
      4.222139  0.018835 13.827258            0           0           0  
      2.110146  4.220291  7.500000            0           0           0  
      4.220291  6.330437  7.500000            0           0           0  
      2.110146  6.330437  9.610146            0           0           0  
      4.220291  4.220291  9.610146            0           0           0  
      2.120046  4.218682 11.737614            0           0           0  
      4.220913  6.321514 11.738330            0           0           0  
      2.092442  6.331102 13.821809            0           0           0  
      4.210292  4.161083 13.937864            0           0           0  
      6.330437  0.000000  7.500000            0           0           0  
      0.000000  2.110146  7.500000            0           0           0  
      6.330437  2.110146  9.610146            0           0           0  
      0.000000  0.000000  9.610146            0           0           0  
      6.330930  0.003208 11.726308            0           0           0  
      0.003345  2.112393 11.725000            0           0           0  
      6.342080  2.106800 13.820850            0           0           0  
      0.005061  0.004554 13.823235            0           0           0  
      6.330437  4.220291  7.500000            0           0           0  
      0.000000  6.330437  7.500000            0           0           0  
      6.330437  6.330437  9.610146            0           0           0  
      0.000000  4.220291  9.610146            0           0           0  
      6.323781  4.218064 11.739105            0           0           0  
      0.004699  6.328566 11.722209            0           0           0  
      6.357696  6.336796 13.802920            0           0           0  
      0.007599  4.217015 13.819535            0           0           0  
      2.110146  0.000000  9.610146            0           0           0  
      4.220291  2.110146  9.610146            0           0           0  
      2.110146  2.110146  7.500000            0           0           0  
      4.220291  0.000000  7.500000            0           0           0  
      2.107063  0.000575 13.864042            0           0           0  
      4.224635  2.090448 13.862799            0           0           0  
      2.112315  2.107099 11.721602            0           0           0  
      4.222980  8.435073 11.726877            0           0           0  
      2.110146  4.220291  9.610146            0           0           0  
      4.220291  6.330437  9.610146            0           0           0  
      2.110146  6.330437  7.500000            0           0           0  
      4.220291  4.220291  7.500000            0           0           0  
      2.097010  4.221168 13.841723            0           0           0  
      4.226213  6.371172 13.927286            0           0           0  
      2.118256  6.333181 11.728418            0           0           0  
      4.224145  4.225077 11.745768            0           0           0  
      6.330437  0.000000  9.610146            0           0           0  
      0.000000  2.110146  9.610146            0           0           0  
      6.330437  2.110146  7.500000            0           0           0  
      0.000000  0.000000  7.500000            0           0           0  
      6.340445  0.000434 13.864247            0           0           0  
      0.002226  2.106946 13.861882            0           0           0  
      6.332299  2.109264 11.723231            0           0           0  
      0.001400  8.439244 11.720508            0           0           0  
      6.330437  4.220291  9.610146            0           0           0  
      0.000000  6.330437  9.610146            0           0           0  
      6.330437  6.330437  7.500000            0           0           0  
      0.000000  4.220291  7.500000            0           0           0  
      6.350382  4.222322 13.868632            0           0           0  
      0.002211  6.334694 13.860472            0           0           0  
      6.327026  6.331427 11.726999            0           0           0  
      8.439842  4.222291 11.717273            0           0           0  

   4 f  =   26.104258 THz   164.017891 2PiTHz  870.744321 cm-1   107.958488 meV
             X         Y         Z           dx          dy          dz
      5.107894  4.676652 16.450137    -0.013319   -0.056504   -0.026174  
      4.287931  5.682791 15.522835    -0.242658    0.461141    0.824972  
      4.231355  4.817708 16.047547     0.036873    0.083968   -0.188208  
      2.110146  0.000000  7.500000            0           0           0  
      4.220291  2.110146  7.500000            0           0           0  
      2.110146  2.110146  9.610146            0           0           0  
      4.220291  0.000000  9.610146            0           0           0  
      2.113890  0.001981 11.728832            0           0           0  
      4.221367  2.116281 11.734730            0           0           0  
      2.104829  2.109540 13.827594            0           0           0  
      4.222139  0.018835 13.827258            0           0           0  
      2.110146  4.220291  7.500000            0           0           0  
      4.220291  6.330437  7.500000            0           0           0  
      2.110146  6.330437  9.610146            0           0           0  
      4.220291  4.220291  9.610146            0           0           0  
      2.120046  4.218682 11.737614            0           0           0  
      4.220913  6.321514 11.738330            0           0           0  
      2.092442  6.331102 13.821809            0           0           0  
      4.210292  4.161083 13.937864            0           0           0  
      6.330437  0.000000  7.500000            0           0           0  
      0.000000  2.110146  7.500000            0           0           0  
      6.330437  2.110146  9.610146            0           0           0  
      0.000000  0.000000  9.610146            0           0           0  
      6.330930  0.003208 11.726308            0           0           0  
      0.003345  2.112393 11.725000            0           0           0  
      6.342080  2.106800 13.820850            0           0           0  
      0.005061  0.004554 13.823235            0           0           0  
      6.330437  4.220291  7.500000            0           0           0  
      0.000000  6.330437  7.500000            0           0           0  
      6.330437  6.330437  9.610146            0           0           0  
      0.000000  4.220291  9.610146            0           0           0  
      6.323781  4.218064 11.739105            0           0           0  
      0.004699  6.328566 11.722209            0           0           0  
      6.357696  6.336796 13.802920            0           0           0  
      0.007599  4.217015 13.819535            0           0           0  
      2.110146  0.000000  9.610146            0           0           0  
      4.220291  2.110146  9.610146            0           0           0  
      2.110146  2.110146  7.500000            0           0           0  
[...]
      0.000000  2.110146  7.500000            0           0           0  
      6.330437  2.110146  9.610146            0           0           0  
      0.000000  0.000000  9.610146            0           0           0  
      6.330930  0.003208 11.726308            0           0           0  
      0.003345  2.112393 11.725000            0           0           0  
      6.342080  2.106800 13.820850            0           0           0  
      0.005061  0.004554 13.823235            0           0           0  
      6.330437  4.220291  7.500000            0           0           0  
      0.000000  6.330437  7.500000            0           0           0  
      6.330437  6.330437  9.610146            0           0           0  
      0.000000  4.220291  9.610146            0           0           0  
      6.323781  4.218064 11.739105            0           0           0  
      0.004699  6.328566 11.722209            0           0           0  
      6.357696  6.336796 13.802920            0           0           0  
      0.007599  4.217015 13.819535            0           0           0  
      2.110146  0.000000  9.610146            0           0           0  
      4.220291  2.110146  9.610146            0           0           0  
      2.110146  2.110146  7.500000            0           0           0  
      4.220291  0.000000  7.500000            0           0           0  
      2.107063  0.000575 13.864042            0           0           0  
      4.224635  2.090448 13.862799            0           0           0  
      2.112315  2.107099 11.721602            0           0           0  
      4.222980  8.435073 11.726877            0           0           0  
      2.110146  4.220291  9.610146            0           0           0  
      4.220291  6.330437  9.610146            0           0           0  
      2.110146  6.330437  7.500000            0           0           0  
      4.220291  4.220291  7.500000            0           0           0  
      2.097010  4.221168 13.841723            0           0           0  
      4.226213  6.371172 13.927286            0           0           0  
      2.118256  6.333181 11.728418            0           0           0  
      4.224145  4.225077 11.745768            0           0           0  
      6.330437  0.000000  9.610146            0           0           0  
      0.000000  2.110146  9.610146            0           0           0  
      6.330437  2.110146  7.500000            0           0           0  
      0.000000  0.000000  7.500000            0           0           0  
      6.340445  0.000434 13.864247            0           0           0  
      0.002226  2.106946 13.861882            0           0           0  
      6.332299  2.109264 11.723231            0           0           0  
      0.001400  8.439244 11.720508            0           0           0  
      6.330437  4.220291  9.610146            0           0           0  
      0.000000  6.330437  9.610146            0           0           0  
      6.330437  6.330437  7.500000            0           0           0  
      0.000000  4.220291  7.500000            0           0           0  
      6.350382  4.222322 13.868632            0           0           0  
      0.002211  6.334694 13.860472            0           0           0  
      6.327026  6.331427 11.726999            0           0           0  
      8.439842  4.222291 11.717273            0           0           0  

   7 f  =    6.635884 THz    41.694490 2PiTHz  221.349269 cm-1    27.443799 meV
             X         Y         Z           dx          dy          dz
      5.107894  4.676652 16.450137     0.018223   -0.008741    0.195860  
      4.287931  5.682791 15.522835     0.002862   -0.026136    0.239375  
      4.231355  4.817708 16.047547    -0.002841   -0.010613    0.950325  
      2.110146  0.000000  7.500000            0           0           0  
      4.220291  2.110146  7.500000            0           0           0  
      2.110146  2.110146  9.610146            0           0           0  
      4.220291  0.000000  9.610146            0           0           0  
      2.113890  0.001981 11.728832            0           0           0  
      4.221367  2.116281 11.734730            0           0           0  
      2.104829  2.109540 13.827594            0           0           0  
      4.222139  0.018835 13.827258            0           0           0  
      2.110146  4.220291  7.500000            0           0           0  
      4.220291  6.330437  7.500000            0           0           0  
      2.110146  6.330437  9.610146            0           0           0  
      4.220291  4.220291  9.610146            0           0           0  
      2.120046  4.218682 11.737614            0           0           0  
      4.220913  6.321514 11.738330            0           0           0  
      2.092442  6.331102 13.821809            0           0           0  
      4.210292  4.161083 13.937864            0           0           0  
      6.330437  0.000000  7.500000            0           0           0  
      0.000000  2.110146  7.500000            0           0           0  
      6.330437  2.110146  9.610146            0           0           0  
      0.000000  0.000000  9.610146            0           0           0  
      6.330930  0.003208 11.726308            0           0           0  
      0.003345  2.112393 11.725000            0           0           0  
      6.342080  2.106800 13.820850            0           0           0  
      0.005061  0.004554 13.823235            0           0           0  
      6.330437  4.220291  7.500000            0           0           0  
      0.000000  6.330437  7.500000            0           0           0  
      6.330437  6.330437  9.610146            0           0           0  
      0.000000  4.220291  9.610146            0           0           0  
      6.323781  4.218064 11.739105            0           0           0  
      0.004699  6.328566 11.722209            0           0           0  
      6.357696  6.336796 13.802920            0           0           0  
      0.007599  4.217015 13.819535            0           0           0  
      2.110146  0.000000  9.610146            0           0           0  
      4.220291  2.110146  9.610146            0           0           0  
      2.110146  2.110146  7.500000            0           0           0  
      4.220291  0.000000  7.500000            0           0           0  
      2.107063  0.000575 13.864042            0           0           0  
      4.224635  2.090448 13.862799            0           0           0  
      2.112315  2.107099 11.721602            0           0           0  
      4.222980  8.435073 11.726877            0           0           0  
      2.110146  4.220291  9.610146            0           0           0  
      4.220291  6.330437  9.610146            0           0           0  
      2.110146  6.330437  7.500000            0           0           0  
      4.220291  4.220291  7.500000            0           0           0  
      2.097010  4.221168 13.841723            0           0           0  
      4.226213  6.371172 13.927286            0           0           0  
      2.118256  6.333181 11.728418            0           0           0  
      4.224145  4.225077 11.745768            0           0           0  
      6.330437  0.000000  9.610146            0           0           0  
      0.000000  2.110146  9.610146            0           0           0  
      6.330437  2.110146  7.500000            0           0           0  
      0.000000  0.000000  7.500000            0           0           0  
      6.340445  0.000434 13.864247            0           0           0  
      0.002226  2.106946 13.861882            0           0           0  
      6.332299  2.109264 11.723231            0           0           0  
      0.001400  8.439244 11.720508            0           0           0  
      6.330437  4.220291  9.610146            0           0           0  
      0.000000  6.330437  9.610146            0           0           0  
      6.330437  6.330437  7.500000            0           0           0  
      0.000000  4.220291  7.500000            0           0           0  
      6.350382  4.222322 13.868632            0           0           0  
      0.002211  6.334694 13.860472            0           0           0  
      6.327026  6.331427 11.726999            0           0           0  
      8.439842  4.222291 11.717273            0           0           0  

   8 f  =    4.221114 THz    26.522044 2PiTHz  140.801223 cm-1    17.457119 meV
             X         Y         Z           dx          dy          dz
      5.107894  4.676652 16.450137     0.101072    0.260773   -0.007276  
      4.287931  5.682791 15.522835     0.063546    0.143061   -0.134537  
      4.231355  4.817708 16.047547     0.344502    0.870579    0.050344  
      2.110146  0.000000  7.500000            0           0           0  
      4.220291  2.110146  7.500000            0           0           0  
      2.110146  2.110146  9.610146            0           0           0  
      4.220291  0.000000  9.610146            0           0           0  
      2.113890  0.001981 11.728832            0           0           0  
      4.221367  2.116281 11.734730            0           0           0  
      2.104829  2.109540 13.827594            0           0           0  
      4.222139  0.018835 13.827258            0           0           0  
      2.110146  4.220291  7.500000            0           0           0  
      4.220291  6.330437  7.500000            0           0           0  
      2.110146  6.330437  9.610146            0           0           0  
      4.220291  4.220291  9.610146            0           0           0  
      2.120046  4.218682 11.737614            0           0           0  
      4.220913  6.321514 11.738330            0           0           0  
      2.092442  6.331102 13.821809            0           0           0  
      4.210292  4.161083 13.937864            0           0           0  
      6.330437  0.000000  7.500000            0           0           0  
      0.000000  2.110146  7.500000            0           0           0  
      6.330437  2.110146  9.610146            0           0           0  
      0.000000  0.000000  9.610146            0           0           0  
      6.330930  0.003208 11.726308            0           0           0  
      0.003345  2.112393 11.725000            0           0           0  
      6.342080  2.106800 13.820850            0           0           0  
      0.005061  0.004554 13.823235            0           0           0  
      6.330437  4.220291  7.500000            0           0           0  
      0.000000  6.330437  7.500000            0           0           0  
      6.330437  6.330437  9.610146            0           0           0  
      0.000000  4.220291  9.610146            0           0           0  
      6.323781  4.218064 11.739105            0           0           0  
      0.004699  6.328566 11.722209            0           0           0  
      6.357696  6.336796 13.802920            0           0           0  
      0.007599  4.217015 13.819535            0           0           0  
      2.110146  0.000000  9.610146            0           0           0  
      4.220291  2.110146  9.610146            0           0           0  
      2.110146  2.110146  7.500000            0           0           0  
      4.220291  0.000000  7.500000            0           0           0  
      2.107063  0.000575 13.864042            0           0           0  
      4.224635  2.090448 13.862799            0           0           0  
      2.112315  2.107099 11.721602            0           0           0  
      4.222980  8.435073 11.726877            0           0           0  
      2.110146  4.220291  9.610146            0           0           0  
      4.220291  6.330437  9.610146            0           0           0  
      2.110146  6.330437  7.500000            0           0           0  
      4.220291  4.220291  7.500000            0           0           0  
      2.097010  4.221168 13.841723            0           0           0  
      4.226213  6.371172 13.927286            0           0           0  
      2.118256  6.333181 11.728418            0           0           0  
      4.224145  4.225077 11.745768            0           0           0  
      6.330437  0.000000  9.610146            0           0           0  
      0.000000  2.110146  9.610146            0           0           0  
      6.330437  2.110146  7.500000            0           0           0  
      0.000000  0.000000  7.500000            0           0           0  
      6.340445  0.000434 13.864247            0           0           0  
      0.002226  2.106946 13.861882            0           0           0  
      6.332299  2.109264 11.723231            0           0           0  
      0.001400  8.439244 11.720508            0           0           0  
      6.330437  4.220291  9.610146            0           0           0  
      0.000000  6.330437  9.610146            0           0           0  
      6.330437  6.330437  7.500000            0           0           0  
      0.000000  4.220291  7.500000            0           0           0  
      6.350382  4.222322 13.868632            0           0           0  
      0.002211  6.334694 13.860472            0           0           0  
      6.327026  6.331427 11.726999            0           0           0  
      8.439842  4.222291 11.717273            0           0           0  

   9 f  =    2.754112 THz    17.304596 2PiTHz   91.867289 cm-1    11.390087 meV
             X         Y         Z           dx          dy          dz
      5.107894  4.676652 16.450137     0.314275   -0.136688   -0.237991  
      4.287931  5.682791 15.522835     0.116935   -0.053535    0.053590  
      4.231355  4.817708 16.047547     0.837940   -0.322041    0.025352  
      2.110146  0.000000  7.500000            0           0           0  
      4.220291  2.110146  7.500000            0           0           0  
      2.110146  2.110146  9.610146            0           0           0  
      4.220291  0.000000  9.610146            0           0           0  
      2.113890  0.001981 11.728832            0           0           0  
      4.221367  2.116281 11.734730            0           0           0  
      2.104829  2.109540 13.827594            0           0           0  
      4.222139  0.018835 13.827258            0           0           0  
      2.110146  4.220291  7.500000            0           0           0  
      4.220291  6.330437  7.500000            0           0           0  
      2.110146  6.330437  9.610146            0           0           0  
      4.220291  4.220291  9.610146            0           0           0  
      2.120046  4.218682 11.737614            0           0           0  
      4.220913  6.321514 11.738330            0           0           0  
      2.092442  6.331102 13.821809            0           0           0  
      4.210292  4.161083 13.937864            0           0           0  
      6.330437  0.000000  7.500000            0           0           0  
      0.000000  2.110146  7.500000            0           0           0  
      6.330437  2.110146  9.610146            0           0           0  
      0.000000  0.000000  9.610146            0           0           0  
      6.330930  0.003208 11.726308            0           0           0  
      0.003345  2.112393 11.725000            0           0           0  
      6.342080  2.106800 13.820850            0           0           0  
      0.005061  0.004554 13.823235            0           0           0  
      6.330437  4.220291  7.500000            0           0           0  
      0.000000  6.330437  7.500000            0           0           0  
      6.330437  6.330437  9.610146            0           0           0  
      0.000000  4.220291  9.610146            0           0           0  
      6.323781  4.218064 11.739105            0           0           0  
      0.004699  6.328566 11.722209            0           0           0  
      6.357696  6.336796 13.802920            0           0           0  
      0.007599  4.217015 13.819535            0           0           0  
      2.110146  0.000000  9.610146            0           0           0  
      4.220291  2.110146  9.610146            0           0           0  
      2.110146  2.110146  7.500000            0           0           0  
      4.220291  0.000000  7.500000            0           0           0  
      2.107063  0.000575 13.864042            0           0           0  
      4.224635  2.090448 13.862799            0           0           0  
      2.112315  2.107099 11.721602            0           0           0  
      4.222980  8.435073 11.726877            0           0           0  
      2.110146  4.220291  9.610146            0           0           0  
      4.220291  6.330437  9.610146            0           0           0  
      2.110146  6.330437  7.500000            0           0           0  
      4.220291  4.220291  7.500000            0           0           0  
      2.097010  4.221168 13.841723            0           0           0  
      4.226213  6.371172 13.927286            0           0           0  
      2.118256  6.333181 11.728418            0           0           0  
      4.224145  4.225077 11.745768            0           0           0  
      6.330437  0.000000  9.610146            0           0           0  
      0.000000  2.110146  9.610146            0           0           0  
      6.330437  2.110146  7.500000            0           0           0  
      0.000000  0.000000  7.500000            0           0           0  
      6.340445  0.000434 13.864247            0           0           0  
      0.002226  2.106946 13.861882            0           0           0  
      6.332299  2.109264 11.723231            0           0           0  
      0.001400  8.439244 11.720508            0           0           0  
      6.330437  4.220291  9.610146            0           0           0  
      0.000000  6.330437  9.610146            0           0           0  
      6.330437  6.330437  7.500000            0           0           0  
      0.000000  4.220291  7.500000            0           0           0  
      6.350382  4.222322 13.868632            0           0           0  
      0.002211  6.334694 13.860472            0           0           0  
      6.327026  6.331427 11.726999            0           0           0  
      8.439842  4.222291 11.717273            0           0           0  

 Finite differences POTIM=   1.0000000000000000E-002
     LOOP+:  cpu time    111.2834: real time    111.4620
    4ORBIT:  cpu time      0.0000: real time      0.0000

 total amount of memory used by VASP MPI-rank0    66960. kBytes
=======================================================================

   base      :      30000. kBytes
   nonl-proj :      17510. kBytes
   fftplans  :       4923. kBytes
   grid      :       8190. kBytes
   one-center:         73. kBytes
   wavefun   :       6264. kBytes

  
  
 General timing and accounting informations for this job:
 ========================================================
  
                  Total CPU time used (sec):     1990.952
                            User time (sec):     1984.741
                          System time (sec):        6.211
                         Elapsed time (sec):     2008.304
  
                   Maximum memory used (kb):      271720.
                   Average memory used (kb):          N/A
  
                          Minor page faults:       650336
                          Major page faults:           52
                 Voluntary context switches:        22466
