 vasp.6.3.0 20Jan22 (build Apr  1 2022 16:44:48) complex                         
 executed on        HPECrayEX_GCC date 2022.11.13  00:32:05
 running  512 mpi-ranks, with    1 threads/rank
 distrk:  each k-point on  512 cores,    1 groups
 distr:  one band on NCORE=   8 cores,   64 groups


--------------------------------------------------------------------------------------------------------


 INCAR:
   SYSTEM = MgO-rocksalt
   ISMEAR = 0
   SIGMA = 0.05
   EDIFF = 1E-6
   ALGO = ALL
   ISTART = 0
   IBRION = -1
   NSW = 0
   ISYM = 0
   DIPOL = 0.5 0.5 0.5
   IDIPOL = 3
   LDIPOL = .TRUE.
   GGA = RE
   IVDW = 13
   VDW_S8 = 1.7468
   VDW_A1 = 0.5363
   VDW_A2 = 3.0726
   ENCUT = 600
   PREC = Accurate
   LASPH = .TRUE.
   LREAL = .FALSE.
   ISPIN = 1
   NELM = 200
   NELMIN = 8
   NCORE = 8
   KPAR = 1
   LWAVE = .FALSE.
   LCHARG = .FALSE.

 POTCAR:    PAW_PBE Mg_pv 13Apr2007               
 POTCAR:    PAW_PBE O 08Apr2002                   
 POTCAR:    PAW_PBE Mg_pv 13Apr2007               
   SHA256 =  f474ac0dd33840b9ae76c01d57fea79fdf77cdfbb07d5ade72c65f83c709b62b Mg_pv/POTCAR          
   COPYR  = (c) Copyright 13Apr2007 Georg Kresse                                                    
   COPYR  = This file is part of the software VASP. Any use, copying, and all other rights are regul
   COPYR  = If you do not have a valid VASP license, you may not use, copy or distribute this file. 
   VRHFIN =Mg: p6s2                                                                                 
   LEXCH  = PE                                                                                      
   EATOM  =  1056.7344 eV,   77.6678 Ry                                                             
                                                                                                    
   TITEL  = PAW_PBE Mg_pv 13Apr2007                                                                 
   LULTRA =        F    use ultrasoft PP ?                                                          
   IUNSCR =        1    unscreen: 0-lin 1-nonlin 2-no                                               
   RPACOR =    1.500    partial core radius                                                         
   POMASS =   24.305; ZVAL   =    8.000    mass and valenz                                          
   RCORE  =    2.000    outmost cutoff radius                                                       
   RWIGS  =    2.000; RWIGS  =    1.058    wigner-seitz radius (au A)                               
   ENMAX  =  403.929; ENMIN  =  302.947 eV                                                          
   RCLOC  =    1.506    cutoff for local pot                                                        
   LCOR   =        T    correct aug charges                                                         
   LPAW   =        T    paw PP                                                                      
   EAUG   =  758.780                                                                                
   DEXC   =    0.000                                                                                
   RMAX   =    2.045    core radius for proj-oper                                                   
   RAUG   =    1.300    factor for augmentation sphere                                              
   RDEP   =    2.025    radius for radial grids                                                     
   RDEPT  =    1.557    core radius for aug-charge                                                  
                                                                                                    
   Atomic configuration                                                                             
    5 entries                                                                                       
     n  l   j            E        occ.                                                              
     1  0  0.50     -1259.6230   2.0000                                                             
     2  0  0.50       -79.8442   2.0000                                                             
     2  1  1.50       -46.6121   6.0000                                                             
     3  0  0.50        -4.7055   2.0000                                                             
     3  2  1.50        -1.3606   0.0000                                                             
   Description                                                                                      
     l       E           TYP  RCUT    TYP  RCUT                                                     
     1    -46.6121073     23  1.600                                                                 
     1      2.7211652     23  1.600                                                                 
     0     -4.7054661     23  2.000                                                                 
     0     61.2262170     23  2.000                                                                 
     2     -1.3605826     23  2.000                                                                 
  local pseudopotential read in
  partial core-charges read in
  partial kinetic energy density read in
  atomic valenz-charges read in
  non local Contribution for L=           1  read in
    real space projection operators read in
  non local Contribution for L=           1  read in
    real space projection operators read in
  non local Contribution for L=           0  read in
    real space projection operators read in
  non local Contribution for L=           0  read in
    real space projection operators read in
  non local Contribution for L=           2  read in
    real space projection operators read in
    PAW grid and wavefunctions read in

   number of l-projection  operators is LMAX  =           5
   number of lm-projection operators is LMMAX =          13

 POTCAR:    PAW_PBE O 08Apr2002                   
   SHA256 =  818f92134a0a090dccd8ba1447fa70422a3b330e708bb4f08108d8ae51209ddf O/POTCAR              
   COPYR  = (c) Copyright 08Apr2002 Georg Kresse                                                    
   COPYR  = This file is part of the software VASP. Any use, copying, and all other rights are regul
   COPYR  = If you do not have a valid VASP license, you may not use, copy or distribute this file. 
   VRHFIN =O: s2p4                                                                                  
   LEXCH  = PE                                                                                      
   EATOM  =   432.3788 eV,   31.7789 Ry                                                             
                                                                                                    
   TITEL  = PAW_PBE O 08Apr2002                                                                     
   LULTRA =        F    use ultrasoft PP ?                                                          
   IUNSCR =        1    unscreen: 0-lin 1-nonlin 2-no                                               
   RPACOR =    1.200    partial core radius                                                         
   POMASS =   16.000; ZVAL   =    6.000    mass and valenz                                          
   RCORE  =    1.520    outmost cutoff radius                                                       
   RWIGS  =    1.550; RWIGS  =    0.820    wigner-seitz radius (au A)                               
   ENMAX  =  400.000; ENMIN  =  300.000 eV                                                          
   ICORE  =        2    local potential                                                             
   LCOR   =        T    correct aug charges                                                         
   LPAW   =        T    paw PP                                                                      
   EAUG   =  605.392                                                                                
   DEXC   =    0.000                                                                                
   RMAX   =    1.553    core radius for proj-oper                                                   
   RAUG   =    1.300    factor for augmentation sphere                                              
   RDEP   =    1.550    radius for radial grids                                                     
   RDEPT  =    1.329    core radius for aug-charge                                                  
                                                                                                    
   Atomic configuration                                                                             
    4 entries                                                                                       
     n  l   j            E        occ.                                                              
     1  0  0.50      -514.6923   2.0000                                                             
     2  0  0.50       -23.9615   2.0000                                                             
     2  1  0.50        -9.0305   4.0000                                                             
     3  2  1.50        -9.5241   0.0000                                                             
   Description                                                                                      
     l       E           TYP  RCUT    TYP  RCUT                                                     
     0    -23.9615318     23  1.200                                                                 
     0     -9.5240782     23  1.200                                                                 
     1     -9.0304911     23  1.520                                                                 
     1      8.1634956     23  1.520                                                                 
     2     -9.5240782      7  1.500                                                                 
  local pseudopotential read in
  partial core-charges read in
  partial kinetic energy density read in
  kinetic energy density of atom read in
  atomic valenz-charges read in
  non local Contribution for L=           0  read in
    real space projection operators read in
  non local Contribution for L=           0  read in
    real space projection operators read in
  non local Contribution for L=           1  read in
    real space projection operators read in
  non local Contribution for L=           1  read in
    real space projection operators read in
    PAW grid and wavefunctions read in

   number of l-projection  operators is LMAX  =           4
   number of lm-projection operators is LMMAX =           8

 -----------------------------------------------------------------------------
|                                                                             |
|               ----> ADVICE to this user running VASP <----                  |
|                                                                             |
|     You have a (more or less) 'large supercell' and for larger cells it     |
|     might be more efficient to use real-space projection operators.         |
|     Therefore, try LREAL= Auto in the INCAR file.                           |
|     Mind: For very accurate calculation, you might also keep the            |
|     reciprocal projection scheme (i.e. LREAL=.FALSE.).                      |
|                                                                             |
 -----------------------------------------------------------------------------

 -----------------------------------------------------------------------------
|                                                                             |
|               ----> ADVICE to this user running VASP <----                  |
|                                                                             |
|     You enforced a specific xc type in the INCAR file but a different       |
|     type was found in the POTCAR file.                                      |
|     I HOPE YOU KNOW WHAT YOU ARE DOING!                                     |
|                                                                             |
 -----------------------------------------------------------------------------

  PAW_PBE Mg_pv 13Apr2007               :
 energy of atom  1       EATOM=-1056.7344
 kinetic energy error for atom=    0.0221 (will be added to EATOM!!)
  PAW_PBE O 08Apr2002                   :
 energy of atom  2       EATOM= -432.3788
 kinetic energy error for atom=    0.0168 (will be added to EATOM!!)


 POSCAR: Mg  O
  positions in direct lattice
  No initial velocities read in
 -----------------------------------------------------------------------------
|                                                                             |
|           W    W    AA    RRRRR   N    N  II  N    N   GGGG   !!!           |
|           W    W   A  A   R    R  NN   N  II  NN   N  G    G  !!!           |
|           W    W  A    A  R    R  N N  N  II  N N  N  G       !!!           |
|           W WW W  AAAAAA  RRRRR   N  N N  II  N  N N  G  GGG   !            |
|           WW  WW  A    A  R   R   N   NN  II  N   NN  G    G                |
|           W    W  A    A  R    R  N    N  II  N    N   GGGG   !!!           |
|                                                                             |
|     Specifying the vdW parameters                                           |
|     VDW_S8 = 1.747                                                          |
|     VDW_A1 = 0.536                                                          |
|     VDW_A2 = 3.073                                                          |
|     in the INCAR file will overwrite the defaults for revpbe. Please        |
|     make sure that is what you intended.                                    |
|                                                                             |
 -----------------------------------------------------------------------------

 exchange correlation table for  LEXCH =       40
   RHO(1)=    0.500       N(1)  =     2000
   RHO(2)=  100.500       N(2)  =     4000



--------------------------------------------------------------------------------------------------------


 ion  position               nearest neighbor table
   1  0.000  0.750  0.352-  33 2.11  35 2.11  36 2.11  43 2.11  52 2.11
   2  0.250  0.000  0.352-  34 2.11  35 2.11  36 2.11  44 2.11  51 2.11
   3  0.000  0.000  0.451-  35 2.11  34 2.11  33 2.11  41 2.11  50 2.11  39 2.12
   4  0.250  0.750  0.451-  36 2.11  34 2.11  33 2.11  42 2.11  49 2.11  40 2.12
   5  0.000  0.750  0.550-  39 2.11  47 2.11  40 2.11  56 2.11  33 2.12  37 2.15
   6  0.250  0.000  0.550-  40 2.11  39 2.11  48 2.11  55 2.11  34 2.13  38 2.15
   7  0.000  0.001  0.649-  45 2.11  38 2.11  54 2.11  37 2.11  39 2.11
   8  0.248  0.750  0.649-  37 2.09  46 2.11  38 2.11  40 2.12  53 2.13
   9  0.000  0.250  0.352-  41 2.11  35 2.11  43 2.11  44 2.11  60 2.11
  10  0.250  0.500  0.352-  42 2.11  36 2.11  43 2.11  44 2.11  59 2.11
  11  0.000  0.500  0.451-  43 2.11  41 2.11  42 2.11  33 2.11  58 2.11  47 2.12
  12  0.250  0.250  0.451-  44 2.11  41 2.11  42 2.11  34 2.11  57 2.11  48 2.12
  13  0.000  0.250  0.550-  47 2.11  48 2.11  64 2.11  39 2.11  41 2.12  45 2.15
  14  0.250  0.500  0.550-  47 2.11  40 2.11  63 2.11  48 2.11  42 2.13  46 2.14
  15  1.000  0.500  0.649-  45 2.11  62 2.11  46 2.11  37 2.11  47 2.12
  16  0.250  0.250  0.649-  45 2.11  46 2.11  61 2.11  38 2.11  48 2.11
  17  0.500  0.750  0.352-  49 2.11  36 2.11  51 2.11  52 2.11  59 2.11
  18  0.750  0.000  0.352-  50 2.11  35 2.11  51 2.11  52 2.11  60 2.11
  19  0.500  0.000  0.451-  51 2.11  49 2.11  50 2.11  34 2.11  57 2.11  55 2.12
  20  0.750  0.750  0.451-  52 2.11  49 2.11  50 2.11  33 2.11  58 2.11  56 2.12
  21  0.500  0.750  0.550-  63 2.11  40 2.11  56 2.11  55 2.11  49 2.12  53 2.17
  22  0.750  0.000  0.550-  56 2.11  39 2.11  64 2.11  55 2.11  50 2.13  54 2.15
  23  0.500  0.003  0.649-  61 2.09  55 2.10  38 2.11  54 2.11  53 2.14
  24  0.752  0.750  0.649-  37 2.09  62 2.11  54 2.11  56 2.12  53 2.13
  25  0.500  0.250  0.352-  57 2.11  51 2.11  44 2.11  59 2.11  60 2.11
  26  0.750  0.500  0.352-  58 2.11  52 2.11  43 2.11  59 2.11  60 2.11
  27  0.500  0.500  0.451-  59 2.11  49 2.11  57 2.11  58 2.11  42 2.11  63 2.12
  28  0.750  0.250  0.451-  60 2.11  50 2.11  57 2.11  58 2.11  41 2.11  64 2.12
  29  0.500  0.250  0.550-  48 2.11  64 2.11  63 2.11  55 2.12  57 2.12  61 2.14
  30  0.750  0.500  0.550-  47 2.11  56 2.11  63 2.11  64 2.11  58 2.13  62 2.14
  31  0.500  0.498  0.649-  61 2.09  62 2.11  46 2.11  63 2.11  53 2.13
  32  0.750  0.250  0.649-  45 2.11  62 2.11  61 2.11  54 2.11  64 2.11
  33  0.000  0.750  0.451-   1 2.11   3 2.11   4 2.11  11 2.11  20 2.11   5 2.12
  34  0.250  0.000  0.451-   2 2.11   3 2.11   4 2.11  12 2.11  19 2.11   6 2.13
  35  0.000  0.000  0.352-   3 2.11   2 2.11   1 2.11   9 2.11  18 2.11
  36  0.250  0.750  0.352-   4 2.11   2 2.11   1 2.11  10 2.11  17 2.11
  37  1.000  0.750  0.651-  24 2.09   8 2.09   7 2.11  15 2.11   5 2.15
  38  0.250  0.000  0.651-  23 2.11   8 2.11   7 2.11  16 2.11   6 2.15
  39  1.000  0.000  0.550-   5 2.11  22 2.11   6 2.11  13 2.11   7 2.11   3 2.12
  40  0.250  0.750  0.550-  21 2.11   6 2.11  14 2.11   5 2.11   8 2.12   4 2.12
  41  0.000  0.250  0.451-   9 2.11   3 2.11  11 2.11  12 2.11  28 2.11  13 2.12
  42  0.250  0.500  0.451-  10 2.11   4 2.11  11 2.11  12 2.11  27 2.11  14 2.13
  43  0.000  0.500  0.352-  11 2.11   9 2.11  10 2.11   1 2.11  26 2.11
  44  0.250  0.250  0.352-  12 2.11   9 2.11  10 2.11   2 2.11  25 2.11
  45  1.000  0.250  0.651-   7 2.11  32 2.11  16 2.11  15 2.11  13 2.15
  46  0.250  0.500  0.651-   8 2.11  31 2.11  16 2.11  15 2.11  14 2.14
  47  0.000  0.500  0.550-   5 2.11  14 2.11  30 2.11  13 2.11  15 2.12  11 2.12
  48  0.250  0.250  0.550-  29 2.11   6 2.11  13 2.11  14 2.11  16 2.11  12 2.12
  49  0.500  0.750  0.451-  17 2.11   4 2.11  19 2.11  20 2.11  27 2.11  21 2.12
  50  0.750  0.000  0.451-  18 2.11   3 2.11  19 2.11  20 2.11  28 2.11  22 2.13
  51  0.500  0.000  0.352-  19 2.11  17 2.11  18 2.11   2 2.11  25 2.11
  52  0.750  0.750  0.352-  20 2.11  17 2.11  18 2.11   1 2.11  26 2.11
  53  0.500  0.750  0.652-  24 2.13   8 2.13  31 2.13  23 2.14  21 2.17
  54  0.750  0.000  0.651-  23 2.11  24 2.11   7 2.11  32 2.11  22 2.15
  55  0.500  1.000  0.550-  23 2.10  21 2.11  22 2.11   6 2.11  29 2.12  19 2.12
  56  0.750  0.750  0.550-  21 2.11  22 2.11  30 2.11   5 2.11  24 2.12  20 2.12
  57  0.500  0.250  0.451-  25 2.11  19 2.11  12 2.11  27 2.11  28 2.11  29 2.12
  58  0.750  0.500  0.451-  26 2.11  20 2.11  11 2.11  27 2.11  28 2.11  30 2.13
  59  0.500  0.500  0.352-  27 2.11  17 2.11  25 2.11  26 2.11  10 2.11
  60  0.750  0.250  0.352-  28 2.11  18 2.11  25 2.11  26 2.11   9 2.11
  61  0.500  0.250  0.651-  23 2.09  31 2.09  32 2.11  16 2.11  29 2.14
  62  0.750  0.500  0.651-  24 2.11  31 2.11  32 2.11  15 2.11  30 2.14
  63  0.500  0.501  0.550-  21 2.11  30 2.11  14 2.11  31 2.11  29 2.11  27 2.12
  64  0.750  0.250  0.550-  29 2.11  22 2.11  13 2.11  30 2.11  32 2.11  28 2.12


IMPORTANT INFORMATION: All symmetrisations will be switched off!
NOSYMM: (Re-)initialisation of all symmetry stuff for point group C_1.


----------------------------------------------------------------------------------------

                                     Primitive cell                                     

  volume of cell :    1519.8199

  direct lattice vectors                    reciprocal lattice vectors
     8.440984654  0.000000000  0.000000000     0.118469591  0.000000000  0.000000000
     0.000000000  8.440984654  0.000000000     0.000000000  0.118469591  0.000000000
     0.000000000  0.000000000 21.330738491     0.000000000  0.000000000  0.046880702

  length of vectors
     8.440984654  8.440984654 21.330738491     0.118469591  0.118469591  0.046880702

  position of ions in fractional coordinates (direct lattice)
     0.000000000  0.750000000  0.351605267
     0.250000000  0.000000000  0.351605267
     0.000000000  0.000000000  0.450535089
     0.250000000  0.750000000  0.450535089
     0.000000008  0.750147550  0.550126567
     0.249905350  0.000103435  0.550222861
     0.000000026  0.000546055  0.648943465
     0.247747286  0.750033192  0.649243266
     0.000000000  0.250000000  0.351605267
     0.250000000  0.500000000  0.351605267
     0.000000000  0.500000000  0.450535089
     0.250000000  0.250000000  0.450535089
     0.000000012  0.250191124  0.550146528
     0.249928207  0.500214927  0.550255332
     0.999999983  0.499940436  0.649062667
     0.249636403  0.250399205  0.648941138
     0.500000000  0.750000000  0.351605267
     0.750000000  0.000000000  0.351605267
     0.500000000  0.000000000  0.450535089
     0.750000000  0.750000000  0.450535089
     0.499999985  0.750123901  0.550030192
     0.750094647  0.000103445  0.550222837
     0.499999941  0.003291849  0.648638534
     0.752252711  0.750033147  0.649243200
     0.500000000  0.250000000  0.351605267
     0.750000000  0.500000000  0.351605267
     0.500000000  0.500000000  0.450535089
     0.750000000  0.250000000  0.450535089
     0.499999992  0.250340414  0.549992972
     0.750071788  0.500214927  0.550255323
     0.500000005  0.497841145  0.648989133
     0.750363599  0.250399263  0.648941088
     0.000000000  0.750000000  0.450535089
     0.250000000  0.000000000  0.450535089
     0.000000000  0.000000000  0.351605267
     0.250000000  0.750000000  0.351605267
     0.999999975  0.750297883  0.650700566
     0.250242377  0.000040639  0.650797168
     0.999999986  0.000044611  0.549843935
     0.250470800  0.750233324  0.550076074
     0.000000000  0.250000000  0.450535089
     0.250000000  0.500000000  0.450535089
     0.000000000  0.500000000  0.351605267
     0.250000000  0.250000000  0.351605267
     0.999999976  0.250139304  0.650810627
     0.250241849  0.500380847  0.650569646
     0.000000002  0.500222649  0.549863570
     0.250081150  0.250070487  0.549831101
     0.500000000  0.750000000  0.450535089
     0.750000000  0.000000000  0.450535089
     0.500000000  0.000000000  0.351605267
     0.750000000  0.750000000  0.351605267
     0.500000011  0.750432985  0.651858218
     0.749757573  0.000040640  0.650797178
     0.500000010  0.999759990  0.549985217
     0.749529196  0.750233335  0.550076086
     0.500000000  0.250000000  0.450535089
     0.750000000  0.500000000  0.450535089
     0.500000000  0.500000000  0.351605267
     0.750000000  0.250000000  0.351605267
     0.500000022  0.250359372  0.650520160
     0.749758146  0.500380830  0.650569620
     0.500000003  0.500678713  0.549992239
     0.749918844  0.250070464  0.549831100

  ion indices of the primitive-cell ions
   primitive index   ion index
                 1           1
                 2           2
                 3           3
                 4           4
                 5           5
                 6           6
                 7           7
                 8           8
                 9           9
                10          10
                11          11
                12          12
                13          13
                14          14
                15          15
                16          16
                17          17
                18          18
                19          19
                20          20
                21          21
                22          22
                23          23
                24          24
                25          25
                26          26
                27          27
                28          28
                29          29
                30          30
                31          31
                32          32
                33          33
                34          34
                35          35
                36          36
                37          37
                38          38
                39          39
                40          40
                41          41
                42          42
                43          43
                44          44
                45          45
                46          46
                47          47
                48          48
                49          49
                50          50
                51          51
                52          52
                53          53
                54          54
                55          55
                56          56
                57          57
                58          58
                59          59
                60          60
                61          61
                62          62
                63          63
                64          64

----------------------------------------------------------------------------------------



 KPOINTS: pymatgen v2020.8.13 with grid density = 

Automatic generation of k-mesh.
 Grid dimensions read from file:
 generate k-points for:    2    2    1

 Generating k-lattice:

  Cartesian coordinates                     Fractional coordinates (reciprocal lattice)
     0.059234796  0.000000000  0.000000000     0.500000000  0.000000000  0.000000000
     0.000000000  0.059234796  0.000000000     0.000000000  0.500000000  0.000000000
     0.000000000  0.000000000  0.046880702     0.000000000  0.000000000  1.000000000

  Length of vectors
     0.059234796  0.059234796  0.046880702

  Shift w.r.t. Gamma in fractional coordinates (k-lattice)
     0.000000000  0.000000000  0.000000000

 
 Subroutine IBZKPT returns following result:
 ===========================================
 
 Found      4 irreducible k-points:
 
 Following reciprocal coordinates:
            Coordinates               Weight
  0.000000  0.000000  0.000000      1.000000
  0.500000  0.000000  0.000000      1.000000
  0.000000  0.500000  0.000000      1.000000
  0.500000  0.500000  0.000000      1.000000
 
 Following cartesian coordinates:
            Coordinates               Weight
  0.000000  0.000000  0.000000      1.000000
  0.059235  0.000000  0.000000      1.000000
  0.000000  0.059235  0.000000      1.000000
  0.059235  0.059235  0.000000      1.000000
 


--------------------------------------------------------------------------------------------------------




 Dimension of arrays:
   k-points           NKPTS =      4   k-points in BZ     NKDIM =      4   number of bands    NBANDS=    320
   number of dos      NEDOS =    301   number of ions     NIONS =     64
   non local maximal  LDIM  =      5   non local SUM 2l+1 LMDIM =     13
   total plane-waves  NPLWV = 882000
   max r-space proj   IRMAX =      1   max aug-charges    IRDMAX=  11635
   dimension x,y,z NGX =    70 NGY =   70 NGZ =  180
   dimension x,y,z NGXF=   140 NGYF=  140 NGZF=  360
   support grid    NGXF=   140 NGYF=  140 NGZF=  360
   ions per type =              32  32
   NGX,Y,Z   is equivalent  to a cutoff of  13.79, 13.79, 14.03 a.u.
   NGXF,Y,Z  is equivalent  to a cutoff of  27.57, 27.57, 28.06 a.u.

 SYSTEM =  MgO-rocksalt                            
 POSCAR =  Mg  O                                   

--------------------------------------------------------------------------------------------------------


  energy-cutoff  :      600.00
  volume of cell :     1519.82
      direct lattice vectors                 reciprocal lattice vectors
     8.440984654  0.000000000  0.000000000     0.118469591  0.000000000  0.000000000
     0.000000000  8.440984654  0.000000000     0.000000000  0.118469591  0.000000000
     0.000000000  0.000000000 21.330738491     0.000000000  0.000000000  0.046880702

  length of vectors
     8.440984654  8.440984654 21.330738491     0.118469591  0.118469591  0.046880702



 k-points in units of 2pi/SCALE and weight: pymatgen v2020.8.13 with grid density = 
   0.00000000  0.00000000  0.00000000       0.250
   0.05923480  0.00000000  0.00000000       0.250
   0.00000000  0.05923480  0.00000000       0.250
   0.05923480  0.05923480  0.00000000       0.250

 k-points in reciprocal lattice and weights: pymatgen v2020.8.13 with grid density = 
   0.00000000  0.00000000  0.00000000       0.250
   0.50000000  0.00000000  0.00000000       0.250
   0.00000000  0.50000000  0.00000000       0.250
   0.50000000  0.50000000  0.00000000       0.250

 position of ions in fractional coordinates (direct lattice) 
   0.00000000  0.75000000  0.35160527
   0.25000000  0.00000000  0.35160527
   0.00000000  0.00000000  0.45053509
   0.25000000  0.75000000  0.45053509
   0.00000001  0.75014755  0.55012657
   0.24990535  0.00010343  0.55022286
   0.00000003  0.00054606  0.64894346
   0.24774729  0.75003319  0.64924327
   0.00000000  0.25000000  0.35160527
   0.25000000  0.50000000  0.35160527
   0.00000000  0.50000000  0.45053509
   0.25000000  0.25000000  0.45053509
   0.00000001  0.25019112  0.55014653
   0.24992821  0.50021493  0.55025533
   0.99999998  0.49994044  0.64906267
   0.24963640  0.25039920  0.64894114
   0.50000000  0.75000000  0.35160527
   0.75000000  0.00000000  0.35160527
   0.50000000  0.00000000  0.45053509
   0.75000000  0.75000000  0.45053509
   0.49999999  0.75012390  0.55003019
   0.75009465  0.00010345  0.55022284
   0.49999994  0.00329185  0.64863853
   0.75225271  0.75003315  0.64924320
   0.50000000  0.25000000  0.35160527
   0.75000000  0.50000000  0.35160527
   0.50000000  0.50000000  0.45053509
   0.75000000  0.25000000  0.45053509
   0.49999999  0.25034041  0.54999297
   0.75007179  0.50021493  0.55025532
   0.50000001  0.49784114  0.64898913
   0.75036360  0.25039926  0.64894109
   0.00000000  0.75000000  0.45053509
   0.25000000  0.00000000  0.45053509
   0.00000000  0.00000000  0.35160527
   0.25000000  0.75000000  0.35160527
   0.99999997  0.75029788  0.65070057
   0.25024238  0.00004064  0.65079717
   0.99999999  0.00004461  0.54984393
   0.25047080  0.75023332  0.55007607
   0.00000000  0.25000000  0.45053509
   0.25000000  0.50000000  0.45053509
   0.00000000  0.50000000  0.35160527
   0.25000000  0.25000000  0.35160527
   0.99999998  0.25013930  0.65081063
   0.25024185  0.50038085  0.65056965
   0.00000000  0.50022265  0.54986357
   0.25008115  0.25007049  0.54983110
   0.50000000  0.75000000  0.45053509
   0.75000000  0.00000000  0.45053509
   0.50000000  0.00000000  0.35160527
   0.75000000  0.75000000  0.35160527
   0.50000001  0.75043298  0.65185822
   0.74975757  0.00004064  0.65079718
   0.50000001  0.99975999  0.54998522
   0.74952920  0.75023334  0.55007609
   0.50000000  0.25000000  0.45053509
   0.75000000  0.50000000  0.45053509
   0.50000000  0.50000000  0.35160527
   0.75000000  0.25000000  0.35160527
   0.50000002  0.25035937  0.65052016
   0.74975815  0.50038083  0.65056962
   0.50000000  0.50067871  0.54999224
   0.74991884  0.25007046  0.54983110

 position of ions in cartesian coordinates  (Angst):
   0.00000000  6.33073849  7.50000000
   2.11024616  0.00000000  7.50000000
   0.00000000  0.00000000  9.61024616
   2.11024616  6.33073849  9.61024616
   0.00000007  6.33198396 11.73460593
   2.10944723  0.00087309 11.73665996
   0.00000022  0.00460924 13.84244334
   2.09123104  6.33101866 13.84883832
   0.00000000  2.11024616  7.50000000
   2.11024616  4.22049233  7.50000000
   0.00000000  4.22049233  9.61024616
   2.11024616  2.11024616  9.61024616
   0.00000010  2.11185944 11.73503171
   2.10964016  4.22230653 11.73735259
   8.44098451  4.21998955 13.84498600
   2.10717705  2.11361584 13.84239372
   4.22049233  6.33073849  7.50000000
   6.33073849  0.00000000  7.50000000
   4.22049233  0.00000000  9.61024616
   6.33073849  6.33073849  9.61024616
   4.22049220  6.33178434 11.73255019
   6.33153740  0.00087318 11.73665944
   4.22049183  0.02778645 13.83593895
   6.34975359  6.33101829 13.84883691
   4.22049233  2.11024616  7.50000000
   6.33073849  4.22049233  7.50000000
   4.22049233  4.22049233  9.61024616
   6.33073849  2.11024616  9.61024616
   4.22049226  2.11311960 11.73175627
   6.33134445  4.22230652 11.73735240
   4.22049237  4.20226946 13.84341747
   6.33380762  2.11361634 13.84239264
   0.00000000  6.33073849  9.61024616
   2.11024616  0.00000000  9.61024616
   0.00000000  0.00000000  7.50000000
   2.11024616  6.33073849  7.50000000
   8.44098444  6.33325292 13.87992361
   2.11229206  0.00034304 13.88198420
   8.44098454  0.00037656 11.72857718
   2.11422017  6.33270797 11.73352888
   0.00000000  2.11024616  9.61024616
   2.11024616  4.22049233  9.61024616
   0.00000000  4.22049233  7.50000000
   2.11024616  2.11024616  7.50000000
   8.44098445  2.11142203 13.88227129
   2.11228761  4.22370705 13.87713099
   0.00000001  4.22237170 11.72899602
   2.11093115  2.11084115 11.72830344
   4.22049233  6.33073849  9.61024616
   6.33073849  0.00000000  9.61024616
   4.22049233  0.00000000  7.50000000
   6.33073849  6.33073849  7.50000000
   4.22049242  6.33439331 13.90461718
   6.32869217  0.00034304 13.88198442
   4.22049241  8.43895873 11.73159084
   6.32676444  6.33270807 11.73352915
   4.22049233  2.11024616  9.61024616
   6.33073849  4.22049233  9.61024616
   4.22049233  4.22049233  7.50000000
   6.33073849  2.11024616  7.50000000
   4.22049251  2.11327962 13.87607541
   6.32869700  4.22370691 13.87713044
   4.22049235  4.22622133 11.73174062
   6.33005345  2.11084095 11.72830340



--------------------------------------------------------------------------------------------------------

--------------------------------------- Iteration      FINAL  ---------------------------------------


--------------------OUTCAR has been truncated-------------------------


--------------------OUTCAR has been truncated-------------------------


--------------------OUTCAR has been truncated-------------------------


--------------------OUTCAR has been truncated-------------------------


--------------------OUTCAR has been truncated-------------------------


--------------------OUTCAR has been truncated-------------------------


--------------------OUTCAR has been truncated-------------------------


--------------------OUTCAR has been truncated-------------------------


--------------------OUTCAR has been truncated-------------------------


--------------------OUTCAR has been truncated-------------------------



  FORCE on cell =-STRESS in cart. coord.  units (eV):
  Direction    XX          YY          ZZ          XY          YZ          ZX
  --------------------------------------------------------------------------------------
  Alpha Z   875.25928   875.25928   875.25928
  Ewald  161085.68145161085.72423************     0.00001     0.97239    -0.00001
  Hartree171166.90141171166.89922************     0.00001     0.58133    -0.00000
  E(xc)   -2465.27228 -2465.27204 -2473.60933     0.00000     0.00342    -0.00000
  Local  ************************342517.07601    -0.00002    -1.56991     0.00001
  n-local -2795.11515 -2795.11204 -2816.25649    -0.00000     0.03174    -0.00000
  augment  1046.65869  1046.65991  1037.01045    -0.00000     0.00880    -0.00000
  Kinetic  7309.34434  7309.35003  7349.36010    -0.00000    -0.17402     0.00000
  Fock        0.00000     0.00000     0.00000     0.00000     0.00000     0.00000
  vdW       -21.48630   -21.48631   -16.14340    -0.00000    -0.00114     0.00000
  -------------------------------------------------------------------------------------
  Total     -26.39550   -26.38163    -1.69804    -0.00001    -0.14738     0.00001
  in kB     -27.82584   -27.81122    -1.79005    -0.00001    -0.15537     0.00001
  external pressure =      -19.14 kB  Pullay stress =        0.00 kB


 VOLUME and BASIS-vectors are now :
 -----------------------------------------------------------------------------
  energy-cutoff  :      600.00
  volume of cell :     1519.82
      direct lattice vectors                 reciprocal lattice vectors
     8.440984654  0.000000000  0.000000000     0.118469591  0.000000000  0.000000000
     0.000000000  8.440984654  0.000000000     0.000000000  0.118469591  0.000000000
     0.000000000  0.000000000 21.330738491     0.000000000  0.000000000  0.046880702

  length of vectors
     8.440984654  8.440984654 21.330738491     0.118469591  0.118469591  0.046880702


 FORCES acting on ions:
    Electron-Ion                     Ewald-Force                    Non-Local-Force
 -----------------------------------------------------------------------------------------------
   -.489E-05 0.967E-02 0.207E+04   0.351E-05 -.938E-02 -.206E+04   -.331E-05 -.229E-03 -.715E+01
   -.251E-01 0.818E-01 0.207E+04   0.252E-01 -.831E-01 -.206E+04   -.761E-04 0.932E-03 -.717E+01
   -.319E-04 0.243E+00 0.683E+03   0.353E-04 -.236E+00 -.684E+03   -.193E-05 -.515E-02 0.525E+00
   -.753E-02 0.664E-01 0.682E+03   0.292E-01 -.591E-01 -.683E+03   -.163E-01 -.518E-02 0.545E+00
   -.449E-04 0.674E-01 -.688E+03   0.483E-04 -.626E-01 0.688E+03   -.182E-05 -.524E-02 -.148E+00
   -.669E+00 0.102E+01 -.690E+03   0.735E+00 -.114E+01 0.691E+03   -.385E-01 0.843E-01 -.296E+00
   0.181E-03 -.938E-01 -.205E+04   -.193E-03 0.251E+00 0.205E+04   0.305E-05 -.146E+00 0.623E+01
   -.881E+01 -.659E+00 -.205E+04   0.921E+01 0.705E+00 0.205E+04   -.621E-01 -.144E-01 0.619E+01
   -.582E-05 -.799E-02 0.207E+04   0.504E-05 0.836E-02 -.206E+04   0.283E-05 -.298E-03 -.716E+01
   -.194E-01 -.813E-01 0.207E+04   0.195E-01 0.832E-01 -.206E+04   -.826E-04 -.145E-02 -.716E+01
   -.142E-04 -.242E+00 0.683E+03   0.150E-04 0.245E+00 -.684E+03   -.108E-05 -.214E-02 0.531E+00
   0.323E-01 -.352E-01 0.683E+03   -.454E-01 0.390E-01 -.684E+03   0.937E-02 -.220E-02 0.518E+00
   -.328E-04 0.765E-01 -.689E+03   0.361E-04 -.739E-01 0.689E+03   -.376E-05 -.682E-02 -.149E+00
   -.646E+00 -.984E+00 -.690E+03   0.724E+00 0.110E+01 0.690E+03   -.489E-01 -.846E-01 -.345E+00
   -.957E-04 0.201E+00 -.205E+04   0.933E-04 -.355E+00 0.205E+04   0.166E-05 0.138E+00 0.630E+01
   0.274E+00 0.539E+00 -.205E+04   -.447E+00 -.565E+00 0.205E+04   0.159E+00 0.278E-02 0.626E+01
   0.232E-05 0.394E-02 0.207E+04   -.352E-05 -.349E-02 -.206E+04   -.269E-05 -.340E-03 -.717E+01
   0.251E-01 0.818E-01 0.207E+04   -.252E-01 -.831E-01 -.206E+04   0.772E-04 0.931E-03 -.717E+01
   0.329E-04 0.303E+00 0.682E+03   -.353E-04 -.326E+00 -.683E+03   0.179E-05 0.171E-01 0.530E+00
   0.753E-02 0.664E-01 0.682E+03   -.292E-01 -.591E-01 -.683E+03   0.163E-01 -.518E-02 0.545E+00
   0.366E-04 -.219E+00 -.695E+03   -.385E-04 0.197E+00 0.696E+03   0.350E-05 0.251E-01 -.262E+00
   0.669E+00 0.102E+01 -.690E+03   -.735E+00 -.114E+01 0.691E+03   0.385E-01 0.843E-01 -.296E+00
   -.135E-03 0.103E+02 -.205E+04   0.155E-03 -.106E+02 0.204E+04   -.949E-05 -.673E-01 0.612E+01
   0.881E+01 -.659E+00 -.205E+04   -.921E+01 0.706E+00 0.205E+04   0.621E-01 -.144E-01 0.619E+01
   0.838E-05 -.193E-02 0.207E+04   -.520E-05 0.262E-02 -.206E+04   0.143E-05 -.544E-03 -.715E+01
   0.194E-01 -.813E-01 0.207E+04   -.195E-01 0.832E-01 -.206E+04   0.862E-04 -.146E-02 -.716E+01
   0.167E-04 -.273E+00 0.683E+03   -.190E-04 0.315E+00 -.683E+03   0.143E-05 -.295E-01 0.528E+00
   -.323E-01 -.352E-01 0.683E+03   0.455E-01 0.390E-01 -.684E+03   -.937E-02 -.220E-02 0.518E+00
   0.610E-04 0.685E-01 -.686E+03   -.611E-04 -.500E-01 0.686E+03   0.575E-06 -.227E-01 -.132E+00
   0.646E+00 -.984E+00 -.690E+03   -.724E+00 0.110E+01 0.690E+03   0.489E-01 -.846E-01 -.345E+00
   0.746E-04 -.947E+01 -.205E+04   -.747E-04 0.979E+01 0.205E+04   0.757E-06 0.219E-01 0.620E+01
   -.274E+00 0.539E+00 -.205E+04   0.447E+00 -.565E+00 0.205E+04   -.159E+00 0.278E-02 0.626E+01
   -.548E-05 0.512E-01 0.512E+03   0.541E-05 -.571E-01 -.512E+03   -.616E-06 0.759E-02 -.761E-01
   -.144E+00 0.308E+00 0.512E+03   0.149E+00 -.317E+00 -.511E+03   -.620E-02 0.111E-01 -.127E+00
   -.406E-05 0.540E-01 0.155E+04   0.435E-05 -.543E-01 -.156E+04   -.119E-05 0.502E-03 0.341E+01
   -.150E-01 0.523E-02 0.155E+04   0.177E-01 -.531E-02 -.156E+04   -.377E-02 0.133E-03 0.341E+01
   -.270E-04 -.126E+00 -.156E+04   0.248E-04 0.172E+00 0.156E+04   0.636E-05 -.654E-01 -.456E+01
   -.115E+01 0.137E+01 -.156E+04   0.137E+01 -.162E+01 0.156E+04   -.311E+00 0.339E+00 -.476E+01
   -.182E-04 0.123E-01 -.512E+03   0.178E-04 -.916E-02 0.511E+03   0.508E-05 0.730E-02 0.300E+00
   -.130E+01 -.501E-01 -.515E+03   0.144E+01 0.578E-01 0.515E+03   -.232E+00 -.157E-01 0.848E-01
   -.115E-04 -.634E-02 0.512E+03   0.131E-04 -.291E-02 -.512E+03   -.108E-05 0.122E-01 -.856E-01
   -.107E+00 -.283E+00 0.511E+03   0.112E+00 0.277E+00 -.511E+03   -.679E-02 0.805E-02 -.128E+00
   -.312E-05 -.551E-01 0.155E+04   0.270E-05 0.550E-01 -.156E+04   0.118E-05 0.143E-03 0.341E+01
   -.923E-02 -.543E-02 0.155E+04   0.781E-02 0.511E-02 -.156E+04   0.201E-02 0.456E-03 0.341E+01
   -.322E-04 0.361E-02 -.156E+04   0.297E-04 -.321E-01 0.156E+04   0.631E-05 0.475E-01 -.470E+01
   -.105E+01 -.123E+01 -.156E+04   0.127E+01 0.144E+01 0.156E+04   -.307E+00 -.299E+00 -.462E+01
   -.395E-04 -.148E+00 -.512E+03   0.383E-04 0.160E+00 0.511E+03   -.255E-06 -.194E-01 0.280E+00
   0.249E+00 0.133E-01 -.511E+03   -.237E+00 -.155E-01 0.511E+03   -.238E-01 0.939E-02 0.291E+00
   -.399E-06 0.569E-04 0.512E+03   -.428E-05 -.921E-02 -.512E+03   0.194E-05 0.126E-01 -.118E+00
   0.144E+00 0.308E+00 0.512E+03   -.149E+00 -.317E+00 -.511E+03   0.620E-02 0.111E-01 -.127E+00
   0.635E-05 0.597E-01 0.155E+04   -.438E-05 -.643E-01 -.156E+04   -.197E-06 0.653E-02 0.341E+01
   0.150E-01 0.523E-02 0.155E+04   -.177E-01 -.532E-02 -.156E+04   0.376E-02 0.133E-03 0.341E+01
   -.264E-05 -.660E+00 -.156E+04   0.808E-05 0.782E+00 0.157E+04   -.109E-04 -.146E+00 -.495E+01
   0.115E+01 0.137E+01 -.156E+04   -.137E+01 -.162E+01 0.156E+04   0.311E+00 0.339E+00 -.476E+01
   0.176E-04 0.180E+01 -.513E+03   -.148E-04 -.196E+01 0.512E+03   -.742E-05 0.235E+00 0.228E+00
   0.130E+01 -.501E-01 -.515E+03   -.144E+01 0.578E-01 0.515E+03   0.232E+00 -.157E-01 0.848E-01
   0.185E-04 0.424E-01 0.512E+03   -.164E-04 -.580E-01 -.512E+03   0.144E-05 0.200E-01 -.483E-01
   0.107E+00 -.283E+00 0.511E+03   -.112E+00 0.277E+00 -.511E+03   0.679E-02 0.805E-02 -.128E+00
   0.271E-05 -.610E-01 0.155E+04   -.281E-05 0.648E-01 -.156E+04   0.159E-05 -.534E-02 0.341E+01
   0.924E-02 -.543E-02 0.155E+04   -.781E-02 0.512E-02 -.156E+04   -.201E-02 0.454E-03 0.341E+01
   0.248E-04 -.232E+00 -.156E+04   -.175E-04 0.261E+00 0.156E+04   -.104E-04 -.164E-01 -.462E+01
   0.105E+01 -.123E+01 -.156E+04   -.127E+01 0.144E+01 0.156E+04   0.307E+00 -.299E+00 -.462E+01
   0.541E-04 -.173E+01 -.513E+03   -.564E-04 0.189E+01 0.513E+03   0.467E-06 -.247E+00 0.144E+00
   -.249E+00 0.133E-01 -.511E+03   0.237E+00 -.155E-01 0.511E+03   0.238E-01 0.939E-02 0.291E+00
 -----------------------------------------------------------------------------------------------
   0.489E-05 0.171E+00 0.147E+02   -.226E-12 0.372E-13 0.750E-11   0.216E-05 -.167E+00 -.147E+02


 POSITION                                       TOTAL-FORCE (eV/Angst)
 -----------------------------------------------------------------------------------
      0.00000      6.33074      7.50000        -0.000005      0.000012      0.338210
      2.11025      0.00000      7.50000         0.000071     -0.000447      0.340695
      0.00000      0.00000      9.61025         0.000001      0.002578      0.074176
      2.11025      6.33074      9.61025         0.005204      0.002043      0.094185
      0.00000      6.33198     11.73461         0.000001     -0.000474     -0.042466
      2.10945      0.00087     11.73666         0.026471     -0.027814     -0.008200
      0.00000      0.00461     13.84244        -0.000010      0.011657     -0.066324
      2.09123      6.33102     13.84884         0.332060      0.031329     -0.067836
      0.00000      2.11025      7.50000         0.000002      0.000009      0.339432
      2.11025      4.22049      7.50000         0.000082      0.000460      0.340515
      0.00000      4.22049      9.61025        -0.000000      0.001283      0.074968
      2.11025      2.11025      9.61025        -0.003809      0.001425      0.074414
      0.00000      2.11186     11.73503        -0.000001     -0.003994     -0.033673
      2.10964      4.22231     11.73735         0.027748      0.026102     -0.026371
      8.44098      4.21999     13.84499        -0.000001     -0.017058     -0.098998
      2.10718      2.11362     13.84239        -0.013542     -0.022487     -0.076517
      4.22049      6.33074      7.50000        -0.000004      0.000044      0.341815
      6.33074      0.00000      7.50000        -0.000071     -0.000447      0.340695
      4.22049      0.00000      9.61025        -0.000001     -0.004846      0.089982
      6.33074      6.33074      9.61025        -0.005204      0.002043      0.094186
      4.22049      6.33178     11.73255         0.000001      0.003409      0.190912
      6.33154      0.00087     11.73666        -0.026471     -0.027815     -0.008192
      4.22049      0.02779     13.83594         0.000010     -0.378863      0.019124
      6.34975      6.33102     13.84884        -0.332063      0.031333     -0.067834
      4.22049      2.11025      7.50000         0.000005      0.000078      0.337166
      6.33074      4.22049      7.50000        -0.000079      0.000456      0.340515
      4.22049      4.22049      9.61025        -0.000001      0.011503      0.088723
      6.33074      2.11025      9.61025         0.003808      0.001425      0.074415
      4.22049      2.11312     11.73176         0.000000     -0.003910     -0.042158
      6.33134      4.22231     11.73735        -0.027747      0.026100     -0.026372
      4.22049      4.20227     13.84342         0.000001      0.334613     -0.049409
      6.33381      2.11362     13.84239         0.013547     -0.022498     -0.076513
      0.00000      6.33074      9.61025        -0.000001      0.001638      0.086208
      2.11025      0.00000      9.61025        -0.001031      0.002482      0.080320
      0.00000      0.00000      7.50000        -0.000001      0.000087     -0.501171
      2.11025      6.33074      7.50000        -0.001094     -0.000010     -0.501722
      8.44098      6.33325     13.87992         0.000004     -0.019570      0.098741
      2.11229      0.00034     13.88198        -0.089173      0.092123      0.056971
      8.44098      0.00038     11.72858         0.000005      0.010111      0.028452
      2.11422      6.33271     11.73353        -0.086098     -0.007949     -0.038602
      0.00000      2.11025      9.61025         0.000000      0.002854      0.084144
      2.11025      4.22049      9.61025        -0.001391      0.002062      0.083689
      0.00000      4.22049      7.50000         0.000001      0.000005     -0.501182
      2.11025      2.11025      7.50000         0.000593      0.000084     -0.500751
      8.44098      2.11142     13.88227         0.000004      0.018870      0.063824
      2.11229      4.22371     13.87713        -0.089882     -0.083632      0.102919
      0.00000      4.22237     11.72900        -0.000002     -0.007923      0.029904
      2.11093      2.11084     11.72830        -0.010502      0.007109      0.028118
      4.22049      6.33074      9.61025        -0.000003      0.003423      0.062767
      6.33074      0.00000      9.61025         0.001023      0.002484      0.080318
      4.22049      0.00000      7.50000         0.000002      0.001843     -0.501326
      6.33074      6.33074      7.50000         0.001090     -0.000011     -0.501724
      4.22049      6.33439     13.90462        -0.000006     -0.024618     -0.070625
      6.32869      0.00034     13.88198         0.089177      0.092122      0.056967
      4.22049      8.43896     11.73159        -0.000005      0.084268     -0.043461
      6.32676      6.33271     11.73353         0.086099     -0.007951     -0.038609
      4.22049      2.11025      9.61025         0.000003      0.004461      0.080335
      6.33074      4.22049      9.61025         0.001395      0.002060      0.083687
      4.22049      4.22049      7.50000         0.000001     -0.001589     -0.501356
      6.33074      2.11025      7.50000        -0.000590      0.000084     -0.500747
      4.22049      2.11328     13.87608        -0.000003      0.011868      0.093069
      6.32870      4.22371     13.87713         0.089882     -0.083636      0.102921
      4.22049      4.22622     11.73174        -0.000002     -0.087509     -0.033454
      6.33005      2.11084     11.72830         0.010502      0.007111      0.028115
 -----------------------------------------------------------------------------------
    total drift:                                0.000007      0.003754     -0.001198


--------------------------------------------------------------------------------------------------------



  FREE ENERGIE OF THE ION-ELECTRON SYSTEM (eV)
  ---------------------------------------------------
  free  energy   TOTEN  =      -371.27162648 eV

  energy  without entropy=     -371.27162648  energy(sigma->0) =     -371.27162648



--------------------------------------------------------------------------------------------------------


    POTLOK:  cpu time      0.2491: real time      0.2491


--------------------------------------------------------------------------------------------------------


     LOOP+:  cpu time     68.9409: real time     69.0883
    4ORBIT:  cpu time      0.0000: real time      0.0000

 total amount of memory used by VASP MPI-rank0    60508. kBytes
=======================================================================

   base      :      30000. kBytes
   nonl-proj :      11878. kBytes
   fftplans  :       4923. kBytes
   grid      :       7379. kBytes
   one-center:         64. kBytes
   wavefun   :       6264. kBytes

  
  
 General timing and accounting informations for this job:
 ========================================================
  
                  Total CPU time used (sec):      101.454
                            User time (sec):      100.185
                          System time (sec):        1.268
                         Elapsed time (sec):      111.266
  
                   Maximum memory used (kb):      157708.
                   Average memory used (kb):          N/A
  
                          Minor page faults:        33931
                          Major page faults:            0
                 Voluntary context switches:        12303
