 vasp.6.3.0 20Jan22 (build Apr  1 2022 16:44:48) gamma-only                      
 executed on        HPECrayEX_GCC date 2023.03.12  09:55:34
 running 1024 mpi-ranks, with    1 threads/rank
 distrk:  each k-point on 1024 cores,    1 groups
 distr:  one band on NCORE=   8 cores,  128 groups


--------------------------------------------------------------------------------------------------------


 INCAR:
   SYSTEM = MgO-rocksalt
   ISMEAR = 0
   SIGMA = 0.05
   EDIFF = 1E-7
   ALGO = ALL
   ISTART = 0
   IBRION = 2
   NSW = 1000
   ISYM = 0
   ISIF = 2
   EDIFFG = -0.02
   DIPOL = 0.5 0.5 0.5
   IDIPOL = 3
   LDIPOL = .TRUE.
   LHFCALC = .TRUE.
   GGA = B5
   AEXX = 0.2
   AGGAX = 0.72
   AGGAC = 0.81
   ALDAC = 0.19
   IVDW = 1
   VDW_S6 = 1.05
   VDW_C6 = 1.75 0.14 0.63 0.70
   VDW_R0 = 1.452 1.001 1.243 1.342
   ENCUT = 520
   PREC = Accurate
   LASPH = .TRUE.
   LREAL = Auto
   ISPIN = 1
   NELM = 200
   NELMIN = 8
   NCORE = 8
   KPAR = 1
   LWAVE = .FALSE.
   LCHARG = .FALSE.

 POTCAR:    PAW_PBE C 08Apr2002                   
 POTCAR:    PAW_PBE H 15Jun2001                   
 POTCAR:    PAW_PBE Mg 13Apr2007                  
 POTCAR:    PAW_PBE O 08Apr2002                   
 POTCAR:    PAW_PBE C 08Apr2002                   
   SHA256 =  253f7b50bb8d59471dbedb8285d89021f4a42ed1a2c5d38a03a736e69125dd95 C/POTCAR              
   COPYR  = (c) Copyright 08Apr2002 Georg Kresse                                                    
   COPYR  = This file is part of the software VASP. Any use, copying, and all other rights are regul
   COPYR  = If you do not have a valid VASP license, you may not use, copy or distribute this file. 
   VRHFIN =C: s2p2                                                                                  
   LEXCH  = PE                                                                                      
   EATOM  =   147.1560 eV,   10.8157 Ry                                                             
                                                                                                    
   TITEL  = PAW_PBE C 08Apr2002                                                                     
   LULTRA =        F    use ultrasoft PP ?                                                          
   IUNSCR =        1    unscreen: 0-lin 1-nonlin 2-no                                               
   RPACOR =    1.200    partial core radius                                                         
   POMASS =   12.011; ZVAL   =    4.000    mass and valenz                                          
   RCORE  =    1.500    outmost cutoff radius                                                       
   RWIGS  =    1.630; RWIGS  =    0.863    wigner-seitz radius (au A)                               
   ENMAX  =  400.000; ENMIN  =  300.000 eV                                                          
   ICORE  =        2    local potential                                                             
   LCOR   =        T    correct aug charges                                                         
   LPAW   =        T    paw PP                                                                      
   EAUG   =  644.873                                                                                
   DEXC   =    0.000                                                                                
   RMAX   =    1.529    core radius for proj-oper                                                   
   RAUG   =    1.300    factor for augmentation sphere                                              
   RDEP   =    1.501    radius for radial grids                                                     
   RDEPT  =    1.300    core radius for aug-charge                                                  
                                                                                                    
   Atomic configuration                                                                             
    4 entries                                                                                       
     n  l   j            E        occ.                                                              
     1  0  0.50      -273.3789   2.0000                                                             
     2  0  0.50       -13.7508   2.0000                                                             
     2  1  0.50        -5.2854   2.0000                                                             
     3  2  1.50        -5.4423   0.0000                                                             
   Description                                                                                      
     l       E           TYP  RCUT    TYP  RCUT                                                     
     0    -13.7508458     23  1.200                                                                 
     0     -8.2022199     23  1.200                                                                 
     1     -5.2854383     23  1.500                                                                 
     1     34.0145650     23  1.500                                                                 
     2     -5.4423304      7  1.500                                                                 
  local pseudopotential read in
  partial core-charges read in
  partial kinetic energy density read in
  atomic valenz-charges read in
  non local Contribution for L=           0  read in
    real space projection operators read in
  non local Contribution for L=           0  read in
    real space projection operators read in
  non local Contribution for L=           1  read in
    real space projection operators read in
  non local Contribution for L=           1  read in
    real space projection operators read in
    PAW grid and wavefunctions read in

   number of l-projection  operators is LMAX  =           4
   number of lm-projection operators is LMMAX =           8

 POTCAR:    PAW_PBE H 15Jun2001                   
   SHA256 =  030f79b5d3ab3cf0e668861823c8fb652ff669f3e15e46930bd03bfd63a607b6 H/POTCAR              
   COPYR  = (c) Copyright 15Jun2001 Georg Kresse                                                    
   COPYR  = This file is part of the software VASP. Any use, copying, and all other rights are regul
   COPYR  = If you do not have a valid VASP license, you may not use, copy or distribute this file. 
   VRHFIN =H: ultrasoft test                                                                        
   LEXCH  = PE                                                                                      
   EATOM  =    12.4884 eV,    0.9179 Ry                                                             
                                                                                                    
   TITEL  = PAW_PBE H 15Jun2001                                                                     
   LULTRA =        F    use ultrasoft PP ?                                                          
   IUNSCR =        0    unscreen: 0-lin 1-nonlin 2-no                                               
   RPACOR =    0.000    partial core radius                                                         
   POMASS =    1.000; ZVAL   =    1.000    mass and valenz                                          
   RCORE  =    1.100    outmost cutoff radius                                                       
   RWIGS  =    0.700; RWIGS  =    0.370    wigner-seitz radius (au A)                               
   ENMAX  =  250.000; ENMIN  =  200.000 eV                                                          
   RCLOC  =    0.701    cutoff for local pot                                                        
   LCOR   =        T    correct aug charges                                                         
   LPAW   =        T    paw PP                                                                      
   EAUG   =  400.000                                                                                
   RMAX   =    1.123    core radius for proj-oper                                                   
   RAUG   =    1.200    factor for augmentation sphere                                              
   RDEP   =    1.112    radius for radial grids                                                     
   RDEPT  =    0.926    core radius for aug-charge                                                  
                                                                                                    
   Atomic configuration                                                                             
    2 entries                                                                                       
     n  l   j            E        occ.                                                              
     1  0  0.50        -6.4927   1.0000                                                             
     2  1  0.50        -3.4015   0.0000                                                             
   Description                                                                                      
     l       E           TYP  RCUT    TYP  RCUT                                                     
     0     -6.4927494     23  1.100                                                                 
     0      6.8029130     23  1.100                                                                 
     1     -4.0817478     23  1.100                                                                 
  local pseudopotential read in
  atomic valenz-charges read in
  non local Contribution for L=           0  read in
    real space projection operators read in
  non local Contribution for L=           0  read in
    real space projection operators read in
  non local Contribution for L=           1  read in
    real space projection operators read in
    PAW grid and wavefunctions read in

   number of l-projection  operators is LMAX  =           3
   number of lm-projection operators is LMMAX =           5

 POTCAR:    PAW_PBE Mg 13Apr2007                  
   SHA256 =  a90315392b5cf46bd986ff2010bfd53a40dec98e36f8d1f6277412e9d0e81a9f Mg/POTCAR             
   COPYR  = (c) Copyright 13Apr2007 Georg Kresse                                                    
   COPYR  = This file is part of the software VASP. Any use, copying, and all other rights are regul
   COPYR  = If you do not have a valid VASP license, you may not use, copy or distribute this file. 
   VRHFIN =Mg: s2p0                                                                                 
   LEXCH  = PE                                                                                      
   EATOM  =    23.0369 eV,    1.6932 Ry                                                             
                                                                                                    
   TITEL  = PAW_PBE Mg 13Apr2007                                                                    
   LULTRA =        F    use ultrasoft PP ?                                                          
   IUNSCR =        1    unscreen: 0-lin 1-nonlin 2-no                                               
   RPACOR =    1.500    partial core radius                                                         
   POMASS =   24.305; ZVAL   =    2.000    mass and valenz                                          
   RCORE  =    2.000    outmost cutoff radius                                                       
   RWIGS  =    2.880; RWIGS  =    1.524    wigner-seitz radius (au A)                               
   ENMAX  =  200.000; ENMIN  =  100.000 eV                                                          
   RCLOC  =    1.506    cutoff for local pot                                                        
   LCOR   =        T    correct aug charges                                                         
   LPAW   =        T    paw PP                                                                      
   EAUG   =  454.734                                                                                
   DEXC   =    0.000                                                                                
   RMAX   =    2.045    core radius for proj-oper                                                   
   RAUG   =    1.300    factor for augmentation sphere                                              
   RDEP   =    2.025    radius for radial grids                                                     
   RDEPT  =    1.942    core radius for aug-charge                                                  
                                                                                                    
   Atomic configuration                                                                             
    6 entries                                                                                       
     n  l   j            E        occ.                                                              
     1  0  0.50     -1259.6230   2.0000                                                             
     2  0  0.50       -79.8442   2.0000                                                             
     2  1  1.50       -46.6121   6.0000                                                             
     3  0  0.50        -4.7055   2.0000                                                             
     3  1  0.50        -1.3660   0.0000                                                             
     3  2  1.50        -1.3606   0.0000                                                             
   Description                                                                                      
     l       E           TYP  RCUT    TYP  RCUT                                                     
     0     -4.7054661     23  2.000                                                                 
     0     27.2116520     23  2.000                                                                 
     1      1.3605826     23  2.000                                                                 
     1     27.2116520     23  2.000                                                                 
     2     -1.3605826     23  2.000                                                                 
  local pseudopotential read in
  partial core-charges read in
  partial kinetic energy density read in
  atomic valenz-charges read in
  non local Contribution for L=           0  read in
    real space projection operators read in
  non local Contribution for L=           0  read in
    real space projection operators read in
  non local Contribution for L=           1  read in
    real space projection operators read in
  non local Contribution for L=           1  read in
    real space projection operators read in
  non local Contribution for L=           2  read in
    real space projection operators read in
    PAW grid and wavefunctions read in

   number of l-projection  operators is LMAX  =           5
   number of lm-projection operators is LMMAX =          13

 POTCAR:    PAW_PBE O 08Apr2002                   
   SHA256 =  818f92134a0a090dccd8ba1447fa70422a3b330e708bb4f08108d8ae51209ddf O/POTCAR              
   COPYR  = (c) Copyright 08Apr2002 Georg Kresse                                                    
   COPYR  = This file is part of the software VASP. Any use, copying, and all other rights are regul
   COPYR  = If you do not have a valid VASP license, you may not use, copy or distribute this file. 
   VRHFIN =O: s2p4                                                                                  
   LEXCH  = PE                                                                                      
   EATOM  =   432.3788 eV,   31.7789 Ry                                                             
                                                                                                    
   TITEL  = PAW_PBE O 08Apr2002                                                                     
   LULTRA =        F    use ultrasoft PP ?                                                          
   IUNSCR =        1    unscreen: 0-lin 1-nonlin 2-no                                               
   RPACOR =    1.200    partial core radius                                                         
   POMASS =   16.000; ZVAL   =    6.000    mass and valenz                                          
   RCORE  =    1.520    outmost cutoff radius                                                       
   RWIGS  =    1.550; RWIGS  =    0.820    wigner-seitz radius (au A)                               
   ENMAX  =  400.000; ENMIN  =  300.000 eV                                                          
   ICORE  =        2    local potential                                                             
   LCOR   =        T    correct aug charges                                                         
   LPAW   =        T    paw PP                                                                      
   EAUG   =  605.392                                                                                
   DEXC   =    0.000                                                                                
   RMAX   =    1.553    core radius for proj-oper                                                   
   RAUG   =    1.300    factor for augmentation sphere                                              
   RDEP   =    1.550    radius for radial grids                                                     
   RDEPT  =    1.329    core radius for aug-charge                                                  
                                                                                                    
   Atomic configuration                                                                             
    4 entries                                                                                       
     n  l   j            E        occ.                                                              
     1  0  0.50      -514.6923   2.0000                                                             
     2  0  0.50       -23.9615   2.0000                                                             
     2  1  0.50        -9.0305   4.0000                                                             
     3  2  1.50        -9.5241   0.0000                                                             
   Description                                                                                      
     l       E           TYP  RCUT    TYP  RCUT                                                     
     0    -23.9615318     23  1.200                                                                 
     0     -9.5240782     23  1.200                                                                 
     1     -9.0304911     23  1.520                                                                 
     1      8.1634956     23  1.520                                                                 
     2     -9.5240782      7  1.500                                                                 
  local pseudopotential read in
  partial core-charges read in
  partial kinetic energy density read in
  kinetic energy density of atom read in
  atomic valenz-charges read in
  non local Contribution for L=           0  read in
    real space projection operators read in
  non local Contribution for L=           0  read in
    real space projection operators read in
  non local Contribution for L=           1  read in
    real space projection operators read in
  non local Contribution for L=           1  read in
    real space projection operators read in
    PAW grid and wavefunctions read in

   number of l-projection  operators is LMAX  =           4
   number of lm-projection operators is LMMAX =           8

 Optimization of the real space projectors (new method)

 maximal supplied QI-value         = 25.13
 optimisation between [QCUT,QGAM] = [ 11.56, 23.12] = [ 37.43,149.72] Ry 
 Optimized for a Real-space Cutoff    1.04 Angstroem

   l    n(q)    QCUT    max X(q) W(low)/X(q) W(high)/X(q)  e(spline) 
   0      7    11.561   115.676    0.20E-03    0.60E-03    0.21E-06
   0      7    11.561    87.132    0.20E-03    0.59E-03    0.21E-06
   1      7    11.561     4.429    0.23E-03    0.35E-03    0.15E-06
   1      7    11.561     2.733    0.18E-03    0.25E-03    0.12E-06
 Optimization of the real space projectors (new method)

 maximal supplied QI-value         = 34.20
 optimisation between [QCUT,QGAM] = [ 11.63, 23.26] = [ 37.87,151.49] Ry 
 Optimized for a Real-space Cutoff    1.21 Angstroem

   l    n(q)    QCUT    max X(q) W(low)/X(q) W(high)/X(q)  e(spline) 
   0      8    11.629    19.460    0.17E-03    0.34E-03    0.21E-06
   0      8    11.629    12.209    0.16E-03    0.33E-03    0.21E-06
   1      8    11.629     4.655    0.18E-03    0.16E-03    0.26E-06
 Optimization of the real space projectors (new method)

 maximal supplied QI-value         = 18.90
 optimisation between [QCUT,QGAM] = [ 11.53, 23.24] = [ 37.21,151.29] Ry 
 Optimized for a Real-space Cutoff    1.28 Angstroem

   l    n(q)    QCUT    max X(q) W(low)/X(q) W(high)/X(q)  e(spline) 
   0      9    11.527    28.265    0.62E-04    0.53E-04    0.73E-07
   0      9    11.527    10.429    0.52E-04    0.40E-04    0.58E-07
   1      8    11.527    13.073    0.98E-04    0.18E-03    0.86E-07
   1      8    11.527     9.625    0.79E-04    0.15E-03    0.74E-07
   2      8    11.527     4.652    0.22E-03    0.72E-04    0.47E-07
 Optimization of the real space projectors (new method)

 maximal supplied QI-value         = 24.76
 optimisation between [QCUT,QGAM] = [ 11.64, 23.27] = [ 37.91,151.63] Ry 
 Optimized for a Real-space Cutoff    1.14 Angstroem

   l    n(q)    QCUT    max X(q) W(low)/X(q) W(high)/X(q)  e(spline) 
   0      8    11.635    20.381    0.10E-03    0.33E-03    0.24E-06
   0      8    11.635    15.268    0.11E-03    0.35E-03    0.26E-06
   1      7    11.635     5.964    0.24E-03    0.31E-03    0.30E-06
   1      7    11.635     5.382    0.22E-03    0.25E-03    0.26E-06
 -----------------------------------------------------------------------------
|                                                                             |
|               ----> ADVICE to this user running VASP <----                  |
|                                                                             |
|     You enforced a specific xc type in the INCAR file but a different       |
|     type was found in the POTCAR file.                                      |
|     I HOPE YOU KNOW WHAT YOU ARE DOING!                                     |
|                                                                             |
 -----------------------------------------------------------------------------

  PAW_PBE C 08Apr2002                   :
 energy of atom  1       EATOM= -147.1560
 kinetic energy error for atom=    0.0071 (will be added to EATOM!!)
  PAW_PBE H 15Jun2001                   :
 energy of atom  2       EATOM=  -12.4884
 kinetic energy error for atom=    0.0014 (will be added to EATOM!!)
  PAW_PBE Mg 13Apr2007                  :
 energy of atom  3       EATOM=  -23.0369
 kinetic energy error for atom=    0.0000 (will be added to EATOM!!)
  PAW_PBE O 08Apr2002                   :
 energy of atom  4       EATOM= -432.3788
 kinetic energy error for atom=    0.0208 (will be added to EATOM!!)


 POSCAR:  C  H Mg  O
  positions in direct lattice
  velocities in cartesian coordinates
 exchange correlation table for  LEXCH =       12
   RHO(1)=    0.500       N(1)  =     2000
   RHO(2)=  100.500       N(2)  =     4000



--------------------------------------------------------------------------------------------------------


 ion  position               nearest neighbor table
   1  0.479  0.469  0.795-   7 1.08   2 1.39   6 1.39
   2  0.561  0.458  0.794-   8 1.08   1 1.39   3 1.39
   3  0.593  0.382  0.795-   9 1.08   4 1.39   2 1.39
   4  0.544  0.316  0.799-  10 1.08   3 1.39   5 1.39
   5  0.461  0.326  0.801-  11 1.08   6 1.39   4 1.39
   6  0.429  0.402  0.799-  12 1.08   5 1.39   1 1.39
   7  0.454  0.528  0.794-   1 1.08
   8  0.600  0.510  0.790-   2 1.08
   9  0.657  0.374  0.794-   3 1.08
  10  0.569  0.257  0.800-   4 1.08
  11  0.423  0.275  0.803-   5 1.08
  12  0.365  0.411  0.800-   6 1.08
  13  0.125  0.000  0.352- 143 2.10 144 2.10 160 2.10 183 2.10 141 2.10  30 2.97  54 2.97  70 2.97
                            14 2.97  16 2.97  55 2.97  15 2.97  32 2.97
  14  0.250  0.125  0.352- 143 2.10 144 2.10 152 2.10 159 2.10 142 2.10  21 2.97  29 2.97  37 2.97
                            13 2.97  16 2.97  31 2.97  15 2.97  24 2.97
  15  0.125  0.125  0.451- 141 2.10 142 2.10 149 2.10 158 2.10 143 2.10 147 2.10  32 2.97  40 2.97
                            16 2.97  24 2.97  13 2.97  21 2.97  14 2.97  30 2.97  17 2.98  34 2.98
  16  0.250  0.000  0.451- 141 2.10 142 2.10 157 2.10 182 2.10 144 2.10 148 2.10  55 2.97  71 2.97
                            15 2.97  31 2.97  13 2.97  29 2.97  14 2.97  54 2.97  17 2.98  58 2.98
  17  0.125  0.000  0.550- 147 2.10 148 2.10 187 2.10 164 2.10 141 2.11 145 2.13  59 2.96  36 2.96
                            19 2.96  20 2.96  58 2.97  74 2.97  18 2.97  34 2.97  15 2.98  16 2.98
  18  0.250  0.125  0.550- 163 2.10 156 2.10 148 2.10 147 2.10 142 2.11 146 2.13  35 2.96  28 2.96
                            20 2.96  19 2.96  33 2.97  25 2.97  17 2.97  41 2.97  31 2.98  24 2.98
  19  0.125  0.125  0.647- 147 2.09 153 2.10 146 2.10 145 2.10 162 2.10  25 2.96  18 2.96  17 2.96
                            34 2.96  20 2.97  36 2.97  44 2.97  28 2.97
  20  0.250  0.000  0.647- 148 2.09 161 2.10 146 2.10 186 2.10 145 2.10  18 2.96  33 2.96  58 2.96
                            17 2.96  75 2.97  19 2.97  59 2.97  35 2.97
  21  0.125  0.250  0.352- 143 2.10 151 2.10 152 2.10 168 2.10 149 2.10  22 2.97  30 2.97  38 2.97
                            14 2.97  15 2.97  23 2.97  40 2.97  24 2.97
  22  0.250  0.375  0.352- 151 2.10 152 2.10 167 2.10 176 2.10 150 2.10  37 2.97  45 2.97  61 2.97
                            21 2.97  24 2.97  48 2.97  23 2.97  39 2.97
  23  0.125  0.375  0.451- 149 2.10 150 2.10 166 2.10 173 2.10 151 2.10 155 2.10  48 2.97  64 2.97
                            24 2.97  40 2.97  21 2.97  38 2.97  22 2.97  45 2.97  49 2.98  25 2.98
  24  0.250  0.250  0.451- 142 2.10 149 2.10 150 2.10 165 2.10 152 2.10 156 2.10  31 2.97  39 2.97
                            15 2.97  23 2.97  37 2.97  22 2.97  14 2.97  21 2.97  18 2.98  25 2.98
  25  0.125  0.250  0.550- 156 2.10 155 2.10 172 2.10 147 2.10 149 2.11 153 2.13  19 2.96  28 2.96
                            27 2.96  44 2.96  42 2.97  34 2.97  18 2.97  26 2.97  23 2.98  24 2.98
  26  0.250  0.375  0.550- 171 2.09 180 2.10 156 2.10 155 2.10 150 2.11 154 2.13  52 2.95  28 2.95
                            27 2.96  43 2.96  65 2.97  41 2.97  49 2.97  25 2.97  39 2.98  48 2.98
  27  0.125  0.375  0.647- 155 2.09 154 2.10 177 2.10 153 2.10 170 2.10  49 2.96  25 2.96  26 2.96
                            42 2.96  52 2.97  28 2.97  68 2.97  44 2.97
  28  0.250  0.250  0.647- 156 2.08 169 2.10 154 2.10 146 2.10 153 2.10  26 2.95  41 2.96  18 2.96
                            25 2.96  35 2.97  27 2.97  19 2.97  43 2.98
  29  0.375  0.000  0.352- 144 2.10 159 2.10 199 2.10 224 2.10 157 2.10  54 2.97  94 2.97 134 2.97
                            14 2.97  31 2.97  96 2.97  16 2.97  71 2.97
  30  0.000  0.125  0.352- 143 2.10 160 2.10 168 2.10 223 2.10 158 2.10  21 2.97  93 2.97 101 2.97
                            13 2.97  15 2.97  95 2.97  32 2.97  40 2.97
  31  0.375  0.125  0.451- 142 2.10 157 2.10 165 2.10 222 2.10 159 2.10 163 2.10  96 2.97 104 2.97
                            16 2.97  24 2.97  14 2.97  29 2.97  37 2.97  94 2.97  33 2.98  18 2.98
  32  0.000  0.000  0.451- 141 2.10 158 2.10 198 2.10 221 2.10 160 2.10 164 2.10  95 2.97 135 2.97
                            15 2.97  55 2.97  30 2.97  13 2.97  70 2.97  93 2.97  74 2.98  97 2.98
  33  0.375  0.000  0.550- 163 2.10 228 2.10 203 2.10 148 2.10 157 2.11 161 2.13  35 2.96  20 2.96
                           100 2.96  75 2.96 138 2.97  18 2.97  58 2.97  98 2.97  31 2.98  96 2.98
  34  1.000  0.125  0.550- 227 2.10 172 2.10 147 2.10 164 2.10 158 2.11 162 2.13  36 2.96  99 2.96
                            44 2.96  19 2.96  25 2.97  97 2.97 105 2.97  17 2.97  40 2.98  95 2.98
  35  0.375  0.125  0.647- 163 2.09 169 2.10 226 2.10 146 2.10 161 2.10  98 2.95  41 2.96  18 2.96
                            33 2.96 100 2.97  28 2.97  20 2.97 108 2.98
  36  0.000  0.000  0.647- 164 2.09 145 2.10 225 2.10 162 2.10 202 2.10  34 2.96  17 2.96  97 2.96
                            74 2.96 139 2.97  59 2.97  19 2.97  99 2.97
  37  0.375  0.250  0.352- 152 2.10 159 2.10 167 2.10 232 2.10 165 2.10  22 2.97  94 2.97 102 2.97
                            14 2.97  24 2.97  31 2.97 104 2.97  39 2.97
  38  0.000  0.375  0.352- 151 2.10 168 2.10 192 2.10 231 2.10 166 2.10  45 2.97 101 2.97 125 2.97
                            21 2.97  40 2.97 103 2.97  23 2.97  64 2.97
  39  0.375  0.375  0.451- 171 2.10 165 2.10 150 2.10 189 2.10 230 2.10 167 2.10 104 2.97 128 2.97
                            24 2.97  48 2.97  37 2.97  22 2.97  61 2.97 102 2.97  26 2.98  41 2.98
  40  0.000  0.250  0.451- 149 2.10 158 2.10 166 2.10 229 2.10 168 2.10 172 2.10  95 2.97 103 2.97
                            15 2.97  23 2.97 101 2.97  30 2.97  38 2.97  21 2.97  34 2.98  42 2.98
  41  0.375  0.250  0.550- 171 2.10 236 2.10 156 2.10 163 2.10 165 2.11 169 2.13  28 2.96  35 2.96
                           108 2.96  43 2.96  26 2.97  98 2.97 106 2.97  18 2.97  39 2.98 104 2.98
  42  0.000  0.375  0.550- 172 2.10 235 2.10 155 2.10 196 2.10 166 2.11 170 2.13  44 2.96  68 2.96
                           107 2.96  27 2.96  25 2.97 105 2.97 129 2.97  49 2.97  23 2.98  40 2.98
  43  0.376  0.375  0.647- 234 2.09 171 2.09 193 2.10 169 2.10 154 2.11 106 2.95  65 2.96 132 2.96
                            41 2.96 108 2.96  26 2.96  52 2.98  28 2.98
  44  1.000  0.250  0.647- 172 2.09 233 2.10 170 2.10 153 2.10 162 2.10  42 2.96  34 2.96  25 2.96
                           105 2.96  99 2.97  19 2.97 107 2.97  27 2.97
  45  0.125  0.500  0.352- 151 2.10 175 2.10 176 2.10 192 2.10 173 2.10  38 2.97  46 2.97  62 2.97
                            22 2.97  48 2.97  23 2.97  64 2.97  47 2.97
  46  0.250  0.625  0.352- 175 2.10 176 2.10 184 2.10 191 2.10 174 2.10  53 2.97  61 2.97  69 2.97
                            45 2.97  48 2.97  63 2.97  47 2.97  56 2.97
  47  0.125  0.625  0.451- 173 2.10 174 2.10 181 2.10 190 2.10 175 2.10 179 2.10  64 2.97  72 2.97
                            48 2.97  56 2.97  45 2.97  53 2.97  46 2.97  62 2.97  50 2.98  66 2.98
  48  0.250  0.500  0.451- 180 2.10 173 2.10 174 2.10 150 2.10 189 2.10 176 2.10  47 2.97  63 2.97
                            23 2.97  39 2.97  61 2.97  45 2.97  46 2.97  22 2.97  50 2.98  49 2.98
  49  0.125  0.500  0.550- 180 2.10 155 2.10 196 2.10 179 2.10 173 2.11 177 2.13  52 2.96  27 2.96
                            68 2.96  51 2.96  50 2.97  42 2.97  66 2.97  26 2.97  48 2.98  23 2.98
  50  0.250  0.625  0.550- 180 2.10 195 2.10 179 2.10 188 2.10 174 2.11 178 2.13  67 2.95  52 2.95
                            51 2.96  60 2.96  49 2.97  73 2.97  57 2.97  65 2.97  48 2.98  63 2.98
  51  0.125  0.625  0.647- 179 2.09 178 2.10 177 2.10 194 2.10 185 2.10  57 2.96  66 2.96  50 2.96
                            49 2.96  68 2.97  76 2.97  60 2.97  52 2.97
  52  0.250  0.500  0.647- 180 2.08 193 2.10 154 2.10 178 2.10 177 2.10  26 2.95  65 2.95  50 2.95
                            49 2.96  67 2.97  27 2.97  51 2.97  43 2.98
  53  0.125  0.750  0.352- 175 2.10 183 2.10 184 2.10 200 2.10 181 2.10  54 2.97  62 2.97  70 2.97
                            46 2.97  47 2.97  55 2.97  72 2.97  56 2.97
  54  0.250  0.875  0.352- 144 2.10 183 2.10 184 2.10 199 2.10 182 2.10  29 2.97  53 2.97  69 2.97
                            13 2.97  56 2.97  16 2.97  71 2.97  55 2.97
  55  0.125  0.875  0.451- 141 2.10 181 2.10 182 2.10 198 2.10 183 2.10 187 2.10  56 2.97  72 2.97
                            16 2.97  32 2.97  70 2.97  53 2.97  54 2.97  13 2.97  74 2.98  57 2.98
  56  0.250  0.750  0.451- 174 2.10 181 2.10 182 2.10 197 2.10 184 2.10 188 2.10  63 2.97  71 2.97
                            47 2.97  55 2.97  69 2.97  54 2.97  46 2.97  53 2.97  50 2.98  57 2.98
  57  0.125  0.750  0.550- 179 2.10 204 2.10 188 2.10 187 2.10 181 2.11 185 2.13  76 2.96  59 2.96
                            51 2.96  60 2.96  74 2.97  66 2.97  58 2.97  50 2.97  55 2.98  72 2.98
  58  0.250  0.875  0.550- 148 2.10 188 2.10 203 2.10 187 2.10 182 2.11 186 2.13  59 2.96  60 2.96
                            20 2.96  75 2.96  17 2.97  33 2.97  57 2.97  73 2.97  16 2.98  71 2.98
  59  0.125  0.875  0.647- 187 2.09 185 2.10 186 2.10 145 2.10 202 2.10  58 2.96  17 2.96  57 2.96
                            74 2.96  76 2.97  60 2.97  36 2.97  20 2.97
  60  0.250  0.750  0.647- 188 2.09 201 2.10 178 2.10 186 2.10 185 2.10  58 2.96  57 2.96  73 2.96
                            50 2.96  59 2.97  51 2.97  75 2.97  67 2.97
  61  0.375  0.500  0.352- 167 2.10 176 2.10 191 2.10 256 2.10 189 2.10  46 2.97 102 2.97 126 2.97
                            22 2.97  39 2.97  48 2.97 128 2.97  63 2.97
  62  0.000  0.625  0.352- 175 2.10 192 2.10 200 2.10 255 2.10 190 2.10  53 2.97 125 2.97 133 2.97
                            45 2.97  47 2.97 127 2.97  64 2.97  72 2.97
  63  0.375  0.625  0.451- 174 2.10 189 2.10 197 2.10 254 2.10 191 2.10 195 2.10 128 2.97 136 2.97
                            48 2.97  56 2.97  46 2.97  61 2.97  69 2.97 126 2.97  50 2.98  73 2.98
  64  0.000  0.500  0.451- 166 2.10 173 2.10 190 2.10 253 2.10 192 2.10 196 2.10 103 2.97 127 2.97
                            23 2.97  47 2.97 125 2.97  38 2.97  62 2.97  45 2.97 129 2.98  66 2.98
  65  0.375  0.500  0.550- 260 2.10 171 2.10 195 2.10 180 2.10 189 2.11 193 2.12  67 2.95  52 2.95
                            43 2.96 132 2.96 106 2.97 130 2.97  26 2.97  50 2.97 128 2.98  39 2.98
  66  0.000  0.625  0.550- 259 2.10 179 2.10 196 2.10 204 2.10 190 2.11 194 2.13 131 2.96  68 2.96
                            76 2.96  51 2.96  57 2.97 137 2.97 129 2.97  49 2.97  47 2.98  72 2.98
  67  0.375  0.625  0.647- 195 2.08 193 2.10 258 2.10 178 2.10 201 2.10 130 2.95  65 2.95  50 2.95
                            73 2.95  52 2.97 140 2.97  60 2.97 132 2.98
  68  0.000  0.500  0.647- 196 2.09 177 2.10 257 2.10 170 2.10 194 2.10  66 2.96  42 2.96  49 2.96
                           129 2.96  51 2.97 131 2.97  27 2.97 107 2.97
  69  0.375  0.750  0.352- 184 2.10 191 2.10 199 2.10 264 2.10 197 2.10  54 2.97 126 2.97 134 2.97
                            46 2.97  56 2.97  63 2.97 136 2.97  71 2.97
  70  0.000  0.875  0.352- 160 2.10 183 2.10 200 2.10 263 2.10 198 2.10  53 2.97  93 2.97 133 2.97
                            13 2.97  32 2.97  55 2.97 135 2.97  72 2.97
  71  0.375  0.875  0.451- 157 2.10 182 2.10 197 2.10 262 2.10 199 2.10 203 2.10  96 2.97 136 2.97
                            16 2.97  56 2.97 134 2.97  29 2.97  69 2.97  54 2.97  73 2.98  58 2.98
  72  0.000  0.750  0.451- 181 2.10 190 2.10 198 2.10 261 2.10 200 2.10 204 2.10 127 2.97 135 2.97
                            47 2.97  55 2.97 133 2.97  62 2.97  70 2.97  53 2.97  74 2.98 137 2.98
  73  0.375  0.750  0.550- 195 2.10 268 2.10 203 2.10 188 2.10 197 2.11 201 2.13  67 2.95 140 2.96
                            60 2.96  75 2.96 138 2.97  50 2.97  58 2.97 130 2.97 136 2.98  71 2.98
  74  0.000  0.875  0.550- 187 2.10 164 2.10 204 2.10 267 2.10 198 2.11 202 2.13  76 2.96 139 2.96
                            59 2.96  36 2.96  57 2.97 137 2.97  17 2.97  97 2.97  32 2.98  55 2.98
  75  0.375  0.875  0.647- 203 2.09 161 2.10 266 2.10 201 2.10 186 2.10 138 2.96  33 2.96  58 2.96
                            73 2.96  20 2.97  60 2.97 100 2.97 140 2.97
  76  0.000  0.750  0.647- 204 2.09 185 2.10 194 2.10 265 2.10 202 2.10  57 2.96 137 2.96  66 2.96
                            74 2.96  59 2.97 139 2.97  51 2.97 131 2.97
  77  0.625  0.000  0.352- 207 2.10 208 2.10 224 2.10 247 2.10 205 2.10  94 2.97 118 2.97 134 2.97
                            78 2.97  80 2.97 119 2.97  79 2.97  96 2.97
  78  0.750  0.125  0.352- 207 2.10 208 2.10 216 2.10 223 2.10 206 2.10  85 2.97  93 2.97 101 2.97
                            77 2.97  80 2.97  95 2.97  79 2.97  88 2.97
  79  0.625  0.125  0.451- 205 2.10 206 2.10 213 2.10 222 2.10 207 2.10 211 2.10  96 2.97 104 2.97
                            80 2.97  88 2.97  77 2.97  85 2.97  78 2.97  94 2.97  81 2.98  82 2.98
  80  0.750  0.000  0.451- 205 2.10 206 2.10 221 2.10 246 2.10 208 2.10 212 2.10 119 2.97 135 2.97
                            79 2.97  95 2.97  77 2.97  93 2.97  78 2.97 118 2.97 122 2.98  97 2.98
  81  0.625  0.000  0.550- 211 2.10 228 2.10 251 2.10 212 2.10 205 2.11 209 2.13  83 2.96 100 2.96
                            84 2.96 123 2.96  82 2.97 138 2.97 122 2.97  98 2.97  79 2.98  96 2.98
  82  0.750  0.125  0.550- 220 2.10 211 2.10 212 2.10 227 2.10 206 2.11 210 2.13  83 2.96  92 2.96
                            84 2.96  99 2.96  81 2.97  97 2.97 105 2.97  89 2.97  88 2.98  79 2.98
  83  0.625  0.125  0.647- 211 2.08 217 2.10 226 2.10 210 2.10 209 2.10  98 2.95  89 2.95  82 2.96
                            81 2.96  92 2.97 100 2.97  84 2.97 108 2.98
  84  0.750  0.000  0.647- 212 2.09 210 2.10 209 2.10 250 2.10 225 2.10  82 2.96  97 2.96  81 2.96
                           122 2.96  99 2.97 123 2.97 139 2.97  83 2.97
  85  0.625  0.250  0.352- 207 2.10 215 2.10 216 2.10 232 2.10 213 2.10  86 2.97  94 2.97 102 2.97
                            78 2.97  79 2.97  87 2.97 104 2.97  88 2.97
  86  0.750  0.375  0.352- 215 2.10 216 2.10 231 2.10 240 2.10 214 2.10 101 2.97 109 2.97 125 2.97
                            85 2.97  88 2.97 112 2.97  87 2.97 103 2.97
  87  0.625  0.375  0.451- 219 2.10 214 2.10 213 2.10 230 2.10 237 2.10 215 2.10 112 2.97 128 2.97
                            88 2.97 104 2.97  85 2.97 102 2.97  86 2.97 109 2.97 106 2.97  90 2.97
  88  0.750  0.250  0.451- 206 2.10 213 2.10 214 2.10 229 2.10 216 2.10 220 2.10  95 2.97 103 2.97
                            79 2.97  87 2.97 101 2.97  86 2.97  78 2.97  85 2.97  82 2.98 105 2.98
  89  0.625  0.250  0.550- 219 2.10 236 2.10 220 2.10 211 2.10 213 2.11 217 2.12  92 2.95  83 2.95
                           108 2.96  91 2.96  90 2.97 106 2.97  98 2.97  82 2.97  87 2.98 104 2.98
  90  0.750  0.375  0.550- 219 2.09 244 2.10 220 2.10 235 2.10 214 2.11 218 2.13 116 2.95  92 2.95
                           107 2.96  89 2.97  91 2.97 113 2.97 105 2.97 129 2.97  87 2.97 112 2.98
  91  0.624  0.375  0.648- 234 2.09 219 2.10 241 2.11 217 2.11 218 2.11 132 2.96 106 2.96 108 2.96
                           113 2.96  89 2.96  90 2.97 116 2.98  92 2.98
  92  0.750  0.250  0.647- 220 2.08 217 2.10 218 2.10 210 2.10 233 2.10  90 2.95  89 2.95  82 2.96
                           105 2.96  83 2.97 107 2.97  99 2.97  91 2.98
  93  0.875  0.000  0.352- 160 2.10 208 2.10 223 2.10 263 2.10 221 2.10  70 2.97  78 2.97 118 2.97
                            30 2.97  95 2.97  32 2.97 135 2.97  80 2.97
  94  0.500  0.125  0.352- 159 2.10 207 2.10 224 2.10 232 2.10 222 2.10  37 2.97  77 2.97  85 2.97
                            29 2.97  31 2.97  96 2.97 104 2.97  79 2.97
  95  0.875  0.125  0.451- 158 2.10 206 2.10 221 2.10 229 2.10 223 2.10 227 2.10  80 2.97  88 2.97
                            32 2.97  40 2.97  93 2.97 101 2.97  30 2.97  78 2.97  97 2.98  34 2.98
  96  0.500  0.000  0.451- 157 2.10 205 2.10 222 2.10 262 2.10 224 2.10 228 2.10  79 2.97 119 2.97
                            31 2.97  71 2.97  77 2.97 134 2.97  29 2.97  94 2.97  81 2.98  33 2.98
  97  0.875  0.000  0.550- 227 2.10 212 2.10 267 2.10 164 2.10 221 2.11 225 2.13 139 2.96  99 2.96
                            84 2.96  36 2.96  82 2.97 122 2.97  34 2.97  74 2.97  95 2.98  80 2.98
  98  0.500  0.125  0.550- 236 2.09 211 2.10 163 2.10 228 2.10 222 2.11 226 2.13  83 2.95  35 2.95
                           100 2.96 108 2.96  41 2.97  89 2.97  81 2.97  33 2.97 104 2.97  79 2.98
  99  0.875  0.125  0.647- 227 2.09 210 2.10 233 2.10 162 2.10 225 2.10 105 2.96  97 2.96  34 2.96
                            82 2.96  84 2.97  44 2.97  36 2.97  92 2.97
 100  0.500  0.000  0.647- 228 2.09 226 2.10 209 2.10 161 2.10 266 2.10  33 2.96  81 2.96  98 2.96
                           138 2.96  35 2.97  83 2.97 123 2.97  75 2.97
 101  0.875  0.250  0.352- 168 2.10 216 2.10 223 2.10 231 2.10 229 2.10  38 2.97  78 2.97  86 2.97
                            30 2.97  88 2.97  95 2.97 103 2.97  40 2.97
 102  0.500  0.375  0.352- 167 2.10 215 2.10 232 2.10 256 2.10 230 2.10  61 2.97  85 2.97 109 2.97
                            37 2.97 104 2.97  39 2.97 128 2.97  87 2.97
 103  0.875  0.375  0.451- 166 2.10 214 2.10 229 2.10 253 2.10 231 2.10 235 2.10  88 2.97 112 2.97
                            40 2.97  64 2.97  86 2.97 125 2.97  38 2.97 101 2.97 129 2.98 105 2.98
 104  0.500  0.250  0.451- 236 2.10 213 2.10 222 2.10 230 2.10 165 2.10 232 2.10  79 2.97  87 2.97
                            31 2.97  39 2.97  94 2.97 102 2.97  85 2.97  37 2.97  98 2.97  41 2.98
 105  0.875  0.250  0.550- 220 2.10 235 2.10 172 2.10 227 2.10 229 2.11 233 2.13  92 2.96 107 2.96
                            99 2.96  44 2.96  42 2.97  82 2.97  34 2.97  90 2.97 103 2.98  88 2.98
 106  0.500  0.375  0.550- 234 2.08 260 2.10 219 2.11 230 2.11 171 2.11 236 2.11 108 2.95  43 2.95
                            91 2.96 132 2.96 113 2.97  65 2.97  89 2.97  41 2.97 128 2.97  87 2.97
 107  0.875  0.375  0.647- 235 2.09 218 2.10 257 2.10 233 2.10 170 2.10 105 2.96 129 2.96  90 2.96
                            42 2.96 116 2.97  92 2.97  44 2.97  68 2.97
 108  0.500  0.251  0.647- 236 2.09 234 2.09 217 2.10 169 2.10 226 2.11 106 2.95  89 2.96  41 2.96
                            91 2.96  43 2.96  98 2.96  83 2.98  35 2.98
 109  0.625  0.500  0.352- 215 2.10 239 2.10 240 2.10 256 2.10 237 2.10 102 2.97 110 2.97 126 2.97
                            86 2.97 112 2.97  87 2.97 128 2.97 111 2.97
 110  0.750  0.625  0.352- 239 2.10 240 2.10 248 2.10 255 2.10 238 2.10 117 2.97 125 2.97 133 2.97
                           109 2.97 112 2.97 127 2.97 111 2.97 120 2.97
 111  0.625  0.625  0.451- 243 2.10 238 2.10 237 2.10 245 2.10 254 2.10 239 2.10 128 2.97 136 2.97
                           112 2.97 120 2.97 109 2.97 117 2.97 110 2.97 126 2.97 114 2.98 121 2.98
 112  0.750  0.500  0.451- 244 2.10 237 2.10 238 2.10 214 2.10 253 2.10 240 2.10 111 2.97 127 2.97
                            87 2.97 103 2.97 125 2.97 109 2.97 110 2.97  86 2.97 114 2.98 129 2.98
 113  0.625  0.500  0.550- 260 2.10 219 2.10 244 2.11 243 2.11 237 2.11 241 2.12 115 2.95 116 2.95
                            91 2.96 132 2.96 106 2.97  90 2.97 130 2.97 114 2.97 128 2.98  87 2.98
 114  0.750  0.625  0.550- 244 2.10 243 2.10 252 2.10 259 2.10 238 2.11 242 2.13 115 2.95 116 2.95
                           131 2.96 124 2.96 129 2.97 121 2.97 137 2.97 113 2.97 112 2.98 111 2.98
 115  0.625  0.625  0.647- 243 2.08 241 2.10 258 2.10 242 2.10 249 2.10 130 2.95 113 2.95 114 2.95
                           121 2.95 116 2.97 140 2.97 124 2.97 132 2.98
 116  0.750  0.500  0.647- 244 2.08 241 2.09 218 2.10 242 2.10 257 2.10  90 2.95 113 2.95 114 2.95
                           129 2.95 115 2.97 107 2.97 131 2.97  91 2.98
 117  0.625  0.750  0.352- 239 2.10 247 2.10 248 2.10 264 2.10 245 2.10 118 2.97 126 2.97 134 2.97
                           110 2.97 111 2.97 119 2.97 136 2.97 120 2.97
 118  0.750  0.875  0.352- 208 2.10 247 2.10 248 2.10 263 2.10 246 2.10  93 2.97 117 2.97 133 2.97
                            77 2.97 120 2.97  80 2.97 135 2.97 119 2.97
 119  0.625  0.875  0.451- 205 2.10 245 2.10 246 2.10 262 2.10 247 2.10 251 2.10 120 2.97 136 2.97
                            80 2.97  96 2.97 134 2.97 117 2.97 118 2.97  77 2.97 121 2.98 122 2.98
 120  0.750  0.750  0.451- 238 2.10 245 2.10 246 2.10 261 2.10 248 2.10 252 2.10 127 2.97 135 2.97
                           111 2.97 119 2.97 133 2.97 118 2.97 110 2.97 117 2.97 114 2.98 121 2.98
 121  0.625  0.750  0.550- 243 2.10 268 2.10 251 2.10 252 2.10 245 2.11 249 2.13 115 2.95 140 2.96
                           123 2.96 124 2.96 138 2.97 122 2.97 114 2.97 130 2.97 136 2.98 119 2.98
 122  0.750  0.875  0.550- 252 2.10 212 2.10 251 2.10 267 2.10 246 2.11 250 2.13 124 2.96 139 2.96
                           123 2.96  84 2.96  97 2.97 121 2.97 137 2.97  81 2.97  80 2.98 119 2.98
 123  0.625  0.875  0.647- 251 2.09 266 2.10 209 2.10 249 2.10 250 2.10 138 2.96 122 2.96  81 2.96
                           121 2.96  84 2.97 124 2.97 140 2.97 100 2.97
 124  0.750  0.750  0.647- 252 2.09 242 2.10 265 2.10 250 2.10 249 2.10 122 2.96 137 2.96 121 2.96
                           114 2.96 131 2.97 139 2.97 123 2.97 115 2.97
 125  0.875  0.500  0.352- 192 2.10 231 2.10 240 2.10 255 2.10 253 2.10  62 2.97  86 2.97 110 2.97
                            38 2.97  64 2.97 112 2.97 127 2.97 103 2.97
 126  0.500  0.625  0.352- 191 2.10 239 2.10 256 2.10 264 2.10 254 2.10  69 2.97 109 2.97 117 2.97
                            61 2.97  63 2.97 128 2.97 136 2.97 111 2.97
 127  0.875  0.625  0.451- 190 2.10 238 2.10 253 2.10 261 2.10 255 2.10 259 2.10 112 2.97 120 2.97
                            64 2.97  72 2.97 125 2.97 133 2.97  62 2.97 110 2.97 114 2.98 129 2.98
 128  0.500  0.500  0.451- 260 2.10 230 2.10 237 2.10 254 2.10 189 2.10 256 2.10  87 2.97 111 2.97
                            39 2.97  63 2.97  61 2.97 126 2.97 102 2.97 109 2.97 106 2.97 130 2.98
 129  0.875  0.500  0.550- 244 2.10 235 2.10 196 2.10 259 2.10 253 2.11 257 2.13 116 2.95 107 2.96
                           131 2.96  68 2.96  42 2.97 114 2.97  66 2.97  90 2.97 103 2.98  64 2.98
 130  0.500  0.625  0.550- 260 2.09 195 2.10 243 2.10 268 2.10 254 2.11 258 2.13 115 2.95  67 2.95
                           140 2.96  65 2.97 113 2.97 132 2.97  73 2.97 121 2.97 128 2.98  63 2.98
 131  0.875  0.625  0.647- 259 2.09 242 2.10 257 2.10 194 2.10 265 2.10  66 2.96 137 2.96 129 2.96
                           114 2.96 124 2.97  76 2.97  68 2.97 116 2.97
 132  0.500  0.499  0.648- 234 2.09 260 2.10 193 2.11 241 2.11 258 2.11  91 2.96  43 2.96 106 2.96
                           113 2.96  65 2.96 130 2.97 115 2.98  67 2.98
 133  0.875  0.750  0.352- 200 2.10 248 2.10 255 2.10 263 2.10 261 2.10  70 2.97 110 2.97 118 2.97
                            62 2.97 120 2.97 127 2.97 135 2.97  72 2.97
 134  0.500  0.875  0.352- 199 2.10 224 2.10 247 2.10 264 2.10 262 2.10  69 2.97  77 2.97 117 2.97
                            29 2.97  71 2.97 119 2.97 136 2.97  96 2.97
 135  0.875  0.875  0.451- 198 2.10 221 2.10 246 2.10 261 2.10 263 2.10 267 2.10  80 2.97 120 2.97
                            32 2.97  72 2.97  70 2.97 133 2.97  93 2.97 118 2.97  74 2.98 137 2.98
 136  0.500  0.750  0.451- 197 2.10 245 2.10 254 2.10 262 2.10 264 2.10 268 2.10 111 2.97 119 2.97
                            63 2.97  71 2.97 126 2.97 134 2.97 117 2.97  69 2.97 121 2.98  73 2.98
 137  0.875  0.750  0.550- 259 2.10 252 2.10 204 2.10 267 2.10 261 2.11 265 2.13 131 2.96 124 2.96
                            76 2.96 139 2.96  66 2.97  74 2.97 122 2.97 114 2.97  72 2.98 135 2.98
 138  0.500  0.875  0.550- 203 2.10 228 2.10 251 2.10 268 2.10 262 2.11 266 2.13 123 2.96  75 2.96
                           100 2.96 140 2.96  33 2.97  81 2.97  73 2.97 121 2.97  96 2.98  71 2.98
 139  0.875  0.875  0.647- 267 2.09 225 2.10 202 2.10 265 2.10 250 2.10  97 2.96 122 2.96 137 2.96
                            74 2.96  36 2.97  76 2.97 124 2.97  84 2.97
 140  0.500  0.750  0.647- 268 2.09 258 2.10 249 2.10 201 2.10 266 2.10  73 2.96 121 2.96 130 2.96
                           138 2.96 115 2.97  67 2.97 123 2.97  75 2.97
 141  0.125  0.000  0.451-  15 2.10  16 2.10  32 2.10  55 2.10  13 2.10  17 2.11
 142  0.250  0.125  0.451-  15 2.10  16 2.10  24 2.10  31 2.10  14 2.10  18 2.11
 143  0.125  0.125  0.352-  13 2.10  14 2.10  21 2.10  30 2.10  15 2.10
 144  0.250  0.000  0.352-  13 2.10  14 2.10  29 2.10  54 2.10  16 2.10
 145  0.125  0.000  0.649-  36 2.10  59 2.10  19 2.10  20 2.10  17 2.13
 146  0.250  0.125  0.650-  20 2.10  19 2.10  28 2.10  35 2.10  18 2.13
 147  0.125  0.125  0.549-  19 2.09  17 2.10  34 2.10  25 2.10  18 2.10  15 2.10
 148  0.250  0.000  0.549-  20 2.09  17 2.10  58 2.10  33 2.10  18 2.10  16 2.10
 149  0.125  0.250  0.451-  15 2.10  23 2.10  24 2.10  40 2.10  21 2.10  25 2.11
 150  0.250  0.375  0.451-  23 2.10  24 2.10  39 2.10  48 2.10  22 2.10  26 2.11
 151  0.125  0.375  0.352-  21 2.10  22 2.10  38 2.10  45 2.10  23 2.10
 152  0.250  0.250  0.352-  14 2.10  21 2.10  22 2.10  37 2.10  24 2.10
 153  0.125  0.250  0.650-  19 2.10  44 2.10  27 2.10  28 2.10  25 2.13
 154  0.250  0.375  0.650-  28 2.10  52 2.10  27 2.10  43 2.11  26 2.13
 155  0.125  0.375  0.549-  27 2.09  25 2.10  49 2.10  42 2.10  23 2.10  26 2.10
 156  0.250  0.250  0.549-  28 2.08  25 2.10  18 2.10  24 2.10  26 2.10  41 2.10
 157  0.375  0.000  0.451-  16 2.10  31 2.10  71 2.10  96 2.10  29 2.10  33 2.11
 158  0.000  0.125  0.451-  15 2.10  32 2.10  40 2.10  95 2.10  30 2.10  34 2.11
 159  0.375  0.125  0.352-  14 2.10  29 2.10  37 2.10  94 2.10  31 2.10
 160  0.000  0.000  0.352-  13 2.10  30 2.10  70 2.10  93 2.10  32 2.10
 161  0.375  0.000  0.649-  20 2.10  75 2.10 100 2.10  35 2.10  33 2.13
 162  1.000  0.125  0.649-  36 2.10  99 2.10  44 2.10  19 2.10  34 2.13
 163  0.375  0.125  0.549-  35 2.09  33 2.10  18 2.10  31 2.10  98 2.10  41 2.10
 164  0.000  0.000  0.549-  36 2.09  74 2.10  17 2.10  34 2.10  97 2.10  32 2.10
 165  0.375  0.250  0.451-  24 2.10  31 2.10  39 2.10 104 2.10  37 2.10  41 2.11
 166  0.000  0.375  0.451-  23 2.10  40 2.10  64 2.10 103 2.10  38 2.10  42 2.11
 167  0.375  0.375  0.352-  22 2.10  37 2.10  61 2.10 102 2.10  39 2.10
 168  0.000  0.250  0.352-  21 2.10  30 2.10  38 2.10 101 2.10  40 2.10
 169  0.375  0.250  0.650-  28 2.10  35 2.10 108 2.10  43 2.10  41 2.13
 170  0.000  0.375  0.649-  44 2.10  68 2.10  27 2.10 107 2.10  42 2.13
 171  0.375  0.375  0.549-  43 2.09  26 2.09  39 2.10  41 2.10  65 2.10 106 2.11
 172  0.000  0.250  0.549-  44 2.09  42 2.10  34 2.10  25 2.10 105 2.10  40 2.10
 173  0.125  0.500  0.451-  23 2.10  47 2.10  48 2.10  64 2.10  45 2.10  49 2.11
 174  0.250  0.625  0.451-  47 2.10  48 2.10  56 2.10  63 2.10  46 2.10  50 2.11
 175  0.125  0.625  0.352-  45 2.10  46 2.10  53 2.10  62 2.10  47 2.10
 176  0.250  0.500  0.352-  22 2.10  45 2.10  46 2.10  61 2.10  48 2.10
 177  0.125  0.500  0.649-  68 2.10  51 2.10  27 2.10  52 2.10  49 2.13
 178  0.250  0.625  0.650-  51 2.10  60 2.10  52 2.10  67 2.10  50 2.13
 179  0.125  0.625  0.549-  51 2.09  66 2.10  57 2.10  50 2.10  47 2.10  49 2.10
 180  0.250  0.500  0.549-  52 2.08  49 2.10  50 2.10  48 2.10  26 2.10  65 2.10
 181  0.125  0.750  0.451-  47 2.10  55 2.10  56 2.10  72 2.10  53 2.10  57 2.11
 182  0.250  0.875  0.451-  16 2.10  55 2.10  56 2.10  71 2.10  54 2.10  58 2.11
 183  0.125  0.875  0.352-  13 2.10  53 2.10  54 2.10  70 2.10  55 2.10
 184  0.250  0.750  0.352-  46 2.10  53 2.10  54 2.10  69 2.10  56 2.10
 185  0.125  0.750  0.649-  76 2.10  59 2.10  60 2.10  51 2.10  57 2.13
 186  0.250  0.875  0.649-  59 2.10  20 2.10  60 2.10  75 2.10  58 2.13
 187  0.125  0.875  0.549-  59 2.09  74 2.10  17 2.10  57 2.10  58 2.10  55 2.10
 188  0.250  0.750  0.549-  60 2.09  57 2.10  58 2.10  50 2.10  56 2.10  73 2.10
 189  0.375  0.500  0.451-  39 2.10  48 2.10  63 2.10 128 2.10  61 2.10  65 2.11
 190  0.000  0.625  0.451-  47 2.10  64 2.10  72 2.10 127 2.10  62 2.10  66 2.11
 191  0.375  0.625  0.352-  46 2.10  61 2.10  69 2.10 126 2.10  63 2.10
 192  0.000  0.500  0.352-  38 2.10  45 2.10  62 2.10 125 2.10  64 2.10
 193  0.375  0.500  0.649-  52 2.10  67 2.10  43 2.10 132 2.11  65 2.12
 194  0.000  0.625  0.649-  76 2.10 131 2.10  51 2.10  68 2.10  66 2.13
 195  0.375  0.625  0.549-  67 2.08  73 2.10  50 2.10  63 2.10 130 2.10  65 2.10
 196  0.000  0.500  0.549-  68 2.09 129 2.10  66 2.10  42 2.10  49 2.10  64 2.10
 197  0.375  0.750  0.451-  56 2.10  63 2.10  71 2.10 136 2.10  69 2.10  73 2.11
 198  0.000  0.875  0.451-  32 2.10  55 2.10  72 2.10 135 2.10  70 2.10  74 2.11
 199  0.375  0.875  0.352-  29 2.10  54 2.10  69 2.10 134 2.10  71 2.10
 200  0.000  0.750  0.352-  53 2.10  62 2.10  70 2.10 133 2.10  72 2.10
 201  0.375  0.750  0.650-  60 2.10 140 2.10  75 2.10  67 2.10  73 2.13
 202  0.000  0.875  0.649- 139 2.10  36 2.10  59 2.10  76 2.10  74 2.13
 203  0.375  0.875  0.549-  75 2.09 138 2.10  33 2.10  58 2.10  73 2.10  71 2.10
 204  0.000  0.750  0.549-  76 2.09  57 2.10 137 2.10  74 2.10  66 2.10  72 2.10
 205  0.625  0.000  0.451-  79 2.10  80 2.10  96 2.10 119 2.10  77 2.10  81 2.11
 206  0.750  0.125  0.451-  79 2.10  80 2.10  88 2.10  95 2.10  78 2.10  82 2.11
 207  0.625  0.125  0.352-  77 2.10  78 2.10  85 2.10  94 2.10  79 2.10
 208  0.750  0.000  0.352-  77 2.10  78 2.10  93 2.10 118 2.10  80 2.10
 209  0.625  0.000  0.649-  84 2.10 123 2.10 100 2.10  83 2.10  81 2.13
 210  0.750  0.125  0.650-  99 2.10  84 2.10  92 2.10  83 2.10  82 2.13
 211  0.625  0.125  0.549-  83 2.08  81 2.10  82 2.10  79 2.10  98 2.10  89 2.10
 212  0.750  0.000  0.549-  84 2.09  97 2.10 122 2.10  82 2.10  81 2.10  80 2.10
 213  0.625  0.250  0.451-  79 2.10  87 2.10  88 2.10 104 2.10  85 2.10  89 2.11
 214  0.750  0.375  0.451-  87 2.10  88 2.10 103 2.10 112 2.10  86 2.10  90 2.11
 215  0.625  0.375  0.352-  85 2.10  86 2.10 102 2.10 109 2.10  87 2.10
 216  0.750  0.250  0.352-  78 2.10  85 2.10  86 2.10 101 2.10  88 2.10
 217  0.625  0.250  0.649-  83 2.10  92 2.10 108 2.10  91 2.11  89 2.12
 218  0.750  0.375  0.650- 107 2.10 116 2.10  92 2.10  91 2.11  90 2.13
 219  0.625  0.375  0.549-  90 2.09  89 2.10  87 2.10  91 2.10 113 2.10 106 2.11
 220  0.750  0.250  0.549-  92 2.08 105 2.10  82 2.10  88 2.10  90 2.10  89 2.10
 221  0.875  0.000  0.451-  32 2.10  80 2.10  95 2.10 135 2.10  93 2.10  97 2.11
 222  0.500  0.125  0.451-  31 2.10  79 2.10  96 2.10 104 2.10  94 2.10  98 2.11
 223  0.875  0.125  0.352-  30 2.10  78 2.10  93 2.10 101 2.10  95 2.10
 224  0.500  0.000  0.352-  29 2.10  77 2.10  94 2.10 134 2.10  96 2.10
 225  0.875  1.000  0.649- 139 2.10  36 2.10  99 2.10  84 2.10  97 2.13
 226  0.500  0.125  0.650-  35 2.10  83 2.10 100 2.10 108 2.11  98 2.13
 227  0.875  0.125  0.549-  99 2.09  97 2.10  34 2.10 105 2.10  82 2.10  95 2.10
 228  0.500  0.000  0.549- 100 2.09 138 2.10  33 2.10  81 2.10  98 2.10  96 2.10
 229  0.875  0.250  0.451-  40 2.10  88 2.10  95 2.10 103 2.10 101 2.10 105 2.11
 230  0.500  0.375  0.451-  39 2.10  87 2.10 104 2.10 128 2.10 102 2.10 106 2.11
 231  0.875  0.375  0.352-  38 2.10  86 2.10 101 2.10 125 2.10 103 2.10
 232  0.500  0.250  0.352-  37 2.10  85 2.10  94 2.10 102 2.10 104 2.10
 233  0.875  0.250  0.650-  44 2.10  99 2.10 107 2.10  92 2.10 105 2.13
 234  0.500  0.375  0.647- 106 2.08  43 2.09 132 2.09 108 2.09  91 2.09
 235  0.875  0.375  0.549- 107 2.09 105 2.10  42 2.10 129 2.10 103 2.10  90 2.10
 236  0.500  0.250  0.549- 108 2.09  98 2.09 104 2.10  41 2.10  89 2.10 106 2.11
 237  0.625  0.500  0.451-  87 2.10 111 2.10 112 2.10 128 2.10 109 2.10 113 2.11
 238  0.750  0.625  0.451- 111 2.10 112 2.10 120 2.10 127 2.10 110 2.10 114 2.11
 239  0.625  0.625  0.352- 109 2.10 110 2.10 117 2.10 126 2.10 111 2.10
 240  0.750  0.500  0.352-  86 2.10 109 2.10 110 2.10 125 2.10 112 2.10
 241  0.625  0.500  0.649- 116 2.09 115 2.10  91 2.11 132 2.11 113 2.12
 242  0.750  0.625  0.650- 131 2.10 124 2.10 116 2.10 115 2.10 114 2.13
 243  0.625  0.625  0.549- 115 2.08 121 2.10 111 2.10 114 2.10 130 2.10 113 2.11
 244  0.750  0.500  0.549- 116 2.08 129 2.10 112 2.10 114 2.10  90 2.10 113 2.11
 245  0.625  0.750  0.451- 111 2.10 119 2.10 120 2.10 136 2.10 117 2.10 121 2.11
 246  0.750  0.875  0.451-  80 2.10 119 2.10 120 2.10 135 2.10 118 2.10 122 2.11
 247  0.625  0.875  0.352-  77 2.10 117 2.10 118 2.10 134 2.10 119 2.10
 248  0.750  0.750  0.352- 110 2.10 117 2.10 118 2.10 133 2.10 120 2.10
 249  0.625  0.750  0.649- 140 2.10 123 2.10 124 2.10 115 2.10 121 2.13
 250  0.750  0.875  0.649- 139 2.10  84 2.10 124 2.10 123 2.10 122 2.13
 251  0.625  0.875  0.549- 123 2.09 122 2.10 121 2.10 138 2.10  81 2.10 119 2.10
 252  0.750  0.750  0.549- 124 2.09 122 2.10 137 2.10 120 2.10 121 2.10 114 2.10
 253  0.875  0.500  0.451-  64 2.10 103 2.10 112 2.10 127 2.10 125 2.10 129 2.11
 254  0.500  0.625  0.451-  63 2.10 111 2.10 128 2.10 136 2.10 126 2.10 130 2.11
 255  0.875  0.625  0.352-  62 2.10 110 2.10 125 2.10 133 2.10 127 2.10
 256  0.500  0.500  0.352-  61 2.10 102 2.10 109 2.10 126 2.10 128 2.10
 257  0.875  0.500  0.649- 131 2.10  68 2.10 107 2.10 116 2.10 129 2.13
 258  0.500  0.625  0.650- 140 2.10  67 2.10 115 2.10 132 2.11 130 2.13
 259  0.875  0.625  0.549- 131 2.09  66 2.10 137 2.10 127 2.10 129 2.10 114 2.10
 260  0.500  0.500  0.549- 130 2.09  65 2.10 113 2.10 128 2.10 132 2.10 106 2.10
 261  0.875  0.750  0.451-  72 2.10 120 2.10 127 2.10 135 2.10 133 2.10 137 2.11
 262  0.500  0.875  0.451-  71 2.10  96 2.10 119 2.10 136 2.10 134 2.10 138 2.11
 263  0.875  0.875  0.352-  70 2.10  93 2.10 118 2.10 133 2.10 135 2.10
 264  0.500  0.750  0.352-  69 2.10 117 2.10 126 2.10 134 2.10 136 2.10
 265  0.875  0.750  0.649- 139 2.10  76 2.10 124 2.10 131 2.10 137 2.13
 266  0.500  0.875  0.650- 123 2.10  75 2.10 140 2.10 100 2.10 138 2.13
 267  0.875  0.875  0.549- 139 2.09 137 2.10  74 2.10 122 2.10  97 2.10 135 2.10
 268  0.500  0.750  0.549- 140 2.09  73 2.10 121 2.10 138 2.10 136 2.10 130 2.10


IMPORTANT INFORMATION: All symmetrisations will be switched off!
NOSYMM: (Re-)initialisation of all symmetry stuff for point group C_1.


----------------------------------------------------------------------------------------

                                     Primitive cell                                     

  volume of cell :    6019.7037

  direct lattice vectors                    reciprocal lattice vectors
    16.809723990  0.000000000  0.000000000     0.059489377  0.000000000  0.000000000
     0.000000000 16.809723990  0.000000000     0.000000000  0.059489377  0.000000000
     0.000000000  0.000000000 21.303646496     0.000000000  0.000000000  0.046940321

  length of vectors
    16.809723990 16.809723990 21.303646496     0.059489377  0.059489377  0.046940321

  position of ions in fractional coordinates (direct lattice)
     0.478942817  0.468590932  0.795385547
     0.561002961  0.458450697  0.793559110
     0.593366310  0.382128230  0.795417546
     0.543538221  0.316209336  0.799069769
     0.461280468  0.326372726  0.800968127
     0.429045317  0.402498870  0.798968190
     0.453691456  0.527787787  0.793680894
     0.599722239  0.509532353  0.790220409
     0.657142981  0.374292546  0.793731651
     0.568822735  0.257044407  0.799996272
     0.422584552  0.275143258  0.803317698
     0.365273280  0.410561255  0.800043545
     0.125000000  0.000000000  0.352052406
     0.250000000  0.125000000  0.352052406
     0.125000000  0.125000000  0.450684135
     0.250000000  0.000000000  0.450684135
     0.125021994  0.000026515  0.549628049
     0.250040500  0.125031388  0.549647456
     0.125024087  0.125031185  0.647310825
     0.250033458  0.000030456  0.647309297
     0.125000000  0.250000000  0.352052406
     0.250000000  0.375000000  0.352052406
     0.125000000  0.375000000  0.450684135
     0.250000000  0.250000000  0.450684135
     0.125018242  0.250027790  0.549652340
     0.250114845  0.375033709  0.549661614
     0.125079840  0.375032313  0.647317839
     0.250135024  0.250098205  0.647227279
     0.375000000  0.000000000  0.352052406
     0.000000000  0.125000000  0.352052406
     0.375000000  0.125000000  0.450684135
     0.000000000  0.000000000  0.450684135
     0.375024125  0.000034278  0.549632466
     0.999997577  0.125035274  0.549642536
     0.375106908  0.125117728  0.647207609
     0.000011966  0.000024881  0.647293336
     0.375000000  0.250000000  0.352052406
     0.000000000  0.375000000  0.352052406
     0.375000000  0.375000000  0.450684135
     0.000000000  0.250000000  0.450684135
     0.375084813  0.250095419  0.549649354
     0.000008635  0.374994058  0.549649073
     0.375584309  0.375098577  0.647420079
     0.999996648  0.250023329  0.647332940
     0.125000000  0.500000000  0.352052406
     0.250000000  0.625000000  0.352052406
     0.125000000  0.625000000  0.450684135
     0.250000000  0.500000000  0.450684135
     0.125022256  0.499987727  0.549620094
     0.250009078  0.624987515  0.549608381
     0.125016351  0.625017843  0.647297653
     0.250118797  0.499981578  0.647131886
     0.125000000  0.750000000  0.352052406
     0.250000000  0.875000000  0.352052406
     0.125000000  0.875000000  0.450684135
     0.250000000  0.750000000  0.450684135
     0.124995592  0.750014674  0.549632881
     0.250010569  0.875024046  0.549630877
     0.125009252  0.875023770  0.647282401
     0.250006808  0.750032151  0.647307163
     0.375000000  0.500000000  0.352052406
     0.000000000  0.625000000  0.352052406
     0.375000000  0.625000000  0.450684135
     0.000000000  0.500000000  0.450684135
     0.375118561  0.499930980  0.549672506
     0.000009442  0.625002322  0.549626028
     0.375035435  0.624903346  0.647071539
     0.000019672  0.500013876  0.647307926
     0.375000000  0.750000000  0.352052406
     0.000000000  0.875000000  0.352052406
     0.375000000  0.875000000  0.450684135
     0.000000000  0.750000000  0.450684135
     0.375033003  0.750001043  0.549623224
     0.000015213  0.875016775  0.549594185
     0.375021066  0.875028990  0.647315724
     0.000021638  0.750025746  0.647280713
     0.625000000  0.000000000  0.352052406
     0.750000000  0.125000000  0.352052406
     0.625000000  0.125000000  0.450684135
     0.750000000  0.000000000  0.450684135
     0.624984908  0.000030209  0.549616485
     0.749974157  0.125026410  0.549635694
     0.624938285  0.125106358  0.647146966
     0.749977824  0.000033745  0.647312718
     0.625000000  0.250000000  0.352052406
     0.750000000  0.375000000  0.352052406
     0.625000000  0.375000000  0.450684135
     0.750000000  0.250000000  0.450684135
     0.624943734  0.250134342  0.549662857
     0.749836784  0.375010519  0.549671287
     0.624409546  0.375091996  0.647786581
     0.749893094  0.250056085  0.647167723
     0.875000000  0.000000000  0.352052406
     0.500000000  0.125000000  0.352052406
     0.875000000  0.125000000  0.450684135
     0.500000000  0.000000000  0.450684135
     0.874982262  0.000033699  0.549631307
     0.500011175  0.125112954  0.549626991
     0.874987031  0.125028362  0.647303847
     0.500011698  0.000114420  0.647322161
     0.875000000  0.250000000  0.352052406
     0.500000000  0.375000000  0.352052406
     0.875000000  0.375000000  0.450684135
     0.500000000  0.250000000  0.450684135
     0.874973519  0.250034929  0.549643252
     0.500058539  0.375093853  0.549572535
     0.874933898  0.375026949  0.647313011
     0.500050474  0.250585533  0.647287792
     0.625000000  0.500000000  0.352052406
     0.750000000  0.625000000  0.352052406
     0.625000000  0.625000000  0.450684135
     0.750000000  0.500000000  0.450684135
     0.624897231  0.499903861  0.549668136
     0.749992320  0.624989638  0.549573329
     0.624970489  0.624932661  0.646931890
     0.749919332  0.500000784  0.646976798
     0.625000000  0.750000000  0.352052406
     0.750000000  0.875000000  0.352052406
     0.625000000  0.875000000  0.450684135
     0.750000000  0.750000000  0.450684135
     0.624981974  0.750013159  0.549599944
     0.749997467  0.875015528  0.549626451
     0.624985300  0.875020928  0.647302536
     0.750017227  0.750016692  0.647289559
     0.875000000  0.500000000  0.352052406
     0.500000000  0.625000000  0.352052406
     0.875000000  0.625000000  0.450684135
     0.500000000  0.500000000  0.450684135
     0.875004804  0.499993229  0.549598442
     0.499996349  0.624839048  0.549680659
     0.875013621  0.625023312  0.647282989
     0.500042579  0.499415815  0.647884097
     0.875000000  0.750000000  0.352052406
     0.500000000  0.875000000  0.352052406
     0.875000000  0.875000000  0.450684135
     0.500000000  0.750000000  0.450684135
     0.875013270  0.750010802  0.549619325
     0.499995322  0.875030796  0.549650056
     0.875026034  0.875030534  0.647283790
     0.500013066  0.749934433  0.647325405
     0.125000000  0.000000000  0.450684135
     0.250000000  0.125000000  0.450684135
     0.125000000  0.125000000  0.352052406
     0.250000000  0.000000000  0.352052406
     0.124979991  0.000014857  0.649451711
     0.250010832  0.125009162  0.649533570
     0.125012445  0.125006998  0.549360262
     0.250004640  0.000011450  0.549369661
     0.125000000  0.250000000  0.450684135
     0.250000000  0.375000000  0.450684135
     0.125000000  0.375000000  0.352052406
     0.250000000  0.250000000  0.352052406
     0.124989704  0.250012496  0.649525379
     0.250046946  0.375032473  0.649686020
     0.124998488  0.374998433  0.549398241
     0.249945140  0.249976210  0.549359036
     0.375000000  0.000000000  0.450684135
     0.000000000  0.125000000  0.450684135
     0.375000000  0.125000000  0.352052406
     0.000000000  0.000000000  0.352052406
     0.374994065  0.000016120  0.649488917
     0.999992007  0.125006764  0.649486758
     0.374966464  0.124950512  0.549332109
     0.000006834  0.000013191  0.549360010
     0.375000000  0.250000000  0.450684135
     0.000000000  0.375000000  0.450684135
     0.375000000  0.375000000  0.352052406
     0.000000000  0.250000000  0.352052406
     0.374971082  0.249966863  0.649532616
     0.000007654  0.375005408  0.649494963
     0.374717499  0.374966904  0.549182836
     0.000001853  0.250040182  0.549362265
     0.125000000  0.500000000  0.450684135
     0.250000000  0.625000000  0.450684135
     0.125000000  0.625000000  0.352052406
     0.250000000  0.500000000  0.352052406
     0.125002328  0.500031591  0.649483877
     0.249973644  0.625037756  0.649521250
     0.124988864  0.625030555  0.549340851
     0.249915916  0.500054967  0.549313954
     0.125000000  0.750000000  0.450684135
     0.250000000  0.875000000  0.450684135
     0.125000000  0.875000000  0.352052406
     0.250000000  0.750000000  0.352052406
     0.124979158  0.750049729  0.649464257
     0.249988934  0.875032943  0.649469849
     0.124991829  0.875026342  0.549331231
     0.249991136  0.750019310  0.549342670
     0.375000000  0.500000000  0.450684135
     0.000000000  0.625000000  0.450684135
     0.375000000  0.625000000  0.352052406
     0.000000000  0.500000000  0.352052406
     0.374774433  0.500185997  0.649285082
     0.000014292  0.625039219  0.649480991
     0.374965022  0.625120749  0.549319826
     0.000002018  0.499999023  0.549399653
     0.375000000  0.750000000  0.450684135
     0.000000000  0.875000000  0.450684135
     0.375000000  0.875000000  0.352052406
     0.000000000  0.750000000  0.352052406
     0.375000104  0.750016220  0.649519400
     0.000007496  0.875038860  0.649401707
     0.375023690  0.875023760  0.549360699
     0.000010315  0.750019159  0.549350266
     0.625000000  0.000000000  0.450684135
     0.750000000  0.125000000  0.450684135
     0.625000000  0.125000000  0.352052406
     0.750000000  0.000000000  0.352052406
     0.625013961  0.000002418  0.649487189
     0.750029403  0.124996086  0.649535073
     0.625031783  0.124928492  0.549321869
     0.750011156  0.000001718  0.549337634
     0.625000000  0.250000000  0.450684135
     0.750000000  0.375000000  0.450684135
     0.625000000  0.375000000  0.352052406
     0.750000000  0.250000000  0.352052406
     0.625084416  0.249862772  0.649404114
     0.749973648  0.375046044  0.649772391
     0.625295873  0.374972075  0.549236289
     0.750085668  0.249960958  0.549337090
     0.875000000  0.000000000  0.450684135
     0.500000000  0.125000000  0.450684135
     0.875000000  0.125000000  0.352052406
     0.500000000  0.000000000  0.352052406
     0.875029450  0.999998295  0.649459397
     0.500009195  0.125082763  0.649638642
     0.875015744  0.124997332  0.549353971
     0.499998673  0.000004102  0.549432433
     0.875000000  0.250000000  0.450684135
     0.500000000  0.375000000  0.450684135
     0.875000000  0.375000000  0.352052406
     0.500000000  0.250000000  0.352052406
     0.875032542  0.250000530  0.649529089
     0.499971561  0.375024025  0.647323071
     0.875022247  0.374996329  0.549396924
     0.499992549  0.249736690  0.549162319
     0.625000000  0.500000000  0.450684135
     0.750000000  0.625000000  0.450684135
     0.625000000  0.625000000  0.352052406
     0.750000000  0.500000000  0.352052406
     0.625320453  0.500320604  0.649028045
     0.750053306  0.625046441  0.649515924
     0.625042347  0.625164163  0.549258317
     0.750148477  0.500043226  0.549244633
     0.625000000  0.750000000  0.450684135
     0.750000000  0.875000000  0.450684135
     0.625000000  0.875000000  0.352052406
     0.750000000  0.750000000  0.352052406
     0.624999772  0.750020794  0.649475699
     0.750032515  0.875027946  0.649476553
     0.625004928  0.875016515  0.549364410
     0.750020583  0.750033146  0.549341523
     0.875000000  0.500000000  0.450684135
     0.500000000  0.625000000  0.450684135
     0.875000000  0.625000000  0.352052406
     0.500000000  0.500000000  0.352052406
     0.875015915  0.500041612  0.649471398
     0.500002200  0.625002078  0.649764609
     0.875041276  0.625022870  0.549338805
     0.499981901  0.500287869  0.549265626
     0.875000000  0.750000000  0.450684135
     0.500000000  0.875000000  0.450684135
     0.875000000  0.875000000  0.352052406
     0.500000000  0.750000000  0.352052406
     0.875028879  0.750047929  0.649447380
     0.500013751  0.875008447  0.649507690
     0.875010942  0.875014958  0.549338705
     0.499999048  0.749999177  0.549379664

  ion indices of the primitive-cell ions
   primitive index   ion index
                 1           1
                 2           2
                 3           3
                 4           4
                 5           5
                 6           6
                 7           7
                 8           8
                 9           9
                10          10
                11          11
                12          12
                13          13
                14          14
                15          15
                16          16
                17          17
                18          18
                19          19
                20          20
                21          21
                22          22
                23          23
                24          24
                25          25
                26          26
                27          27
                28          28
                29          29
                30          30
                31          31
                32          32
                33          33
                34          34
                35          35
                36          36
                37          37
                38          38
                39          39
                40          40
                41          41
                42          42
                43          43
                44          44
                45          45
                46          46
                47          47
                48          48
                49          49
                50          50
                51          51
                52          52
                53          53
                54          54
                55          55
                56          56
                57          57
                58          58
                59          59
                60          60
                61          61
                62          62
                63          63
                64          64
                65          65
                66          66
                67          67
                68          68
                69          69
                70          70
                71          71
                72          72
                73          73
                74          74
                75          75
                76          76
                77          77
                78          78
                79          79
                80          80
                81          81
                82          82
                83          83
                84          84
                85          85
                86          86
                87          87
                88          88
                89          89
                90          90
                91          91
                92          92
                93          93
                94          94
                95          95
                96          96
                97          97
                98          98
                99          99
               100         100
               101         101
               102         102
               103         103
               104         104
               105         105
               106         106
               107         107
               108         108
               109         109
               110         110
               111         111
               112         112
               113         113
               114         114
               115         115
               116         116
               117         117
               118         118
               119         119
               120         120
               121         121
               122         122
               123         123
               124         124
               125         125
               126         126
               127         127
               128         128
               129         129
               130         130
               131         131
               132         132
               133         133
               134         134
               135         135
               136         136
               137         137
               138         138
               139         139
               140         140
               141         141
               142         142
               143         143
               144         144
               145         145
               146         146
               147         147
               148         148
               149         149
               150         150
               151         151
               152         152
               153         153
               154         154
               155         155
               156         156
               157         157
               158         158
               159         159
               160         160
               161         161
               162         162
               163         163
               164         164
               165         165
               166         166
               167         167
               168         168
               169         169
               170         170
               171         171
               172         172
               173         173
               174         174
               175         175
               176         176
               177         177
               178         178
               179         179
               180         180
               181         181
               182         182
               183         183
               184         184
               185         185
               186         186
               187         187
               188         188
               189         189
               190         190
               191         191
               192         192
               193         193
               194         194
               195         195
               196         196
               197         197
               198         198
               199         199
               200         200
               201         201
               202         202
               203         203
               204         204
               205         205
               206         206
               207         207
               208         208
               209         209
               210         210
               211         211
               212         212
               213         213
               214         214
               215         215
               216         216
               217         217
               218         218
               219         219
               220         220
               221         221
               222         222
               223         223
               224         224
               225         225
               226         226
               227         227
               228         228
               229         229
               230         230
               231         231
               232         232
               233         233
               234         234
               235         235
               236         236
               237         237
               238         238
               239         239
               240         240
               241         241
               242         242
               243         243
               244         244
               245         245
               246         246
               247         247
               248         248
               249         249
               250         250
               251         251
               252         252
               253         253
               254         254
               255         255
               256         256
               257         257
               258         258
               259         259
               260         260
               261         261
               262         262
               263         263
               264         264
               265         265
               266         266
               267         267
               268         268

----------------------------------------------------------------------------------------



 KPOINTS: pymatgen v2020.8.13 with grid density = 

Automatic generation of k-mesh.
 Grid dimensions read from file:
 generate k-points for:    1    1    1

 Generating k-lattice:

  Cartesian coordinates                     Fractional coordinates (reciprocal lattice)
     0.059489377  0.000000000  0.000000000     1.000000000  0.000000000  0.000000000
     0.000000000  0.059489377  0.000000000     0.000000000  1.000000000  0.000000000
     0.000000000  0.000000000  0.046940321     0.000000000  0.000000000  1.000000000

  Length of vectors
     0.059489377  0.059489377  0.046940321

  Shift w.r.t. Gamma in fractional coordinates (k-lattice)
     0.000000000  0.000000000  0.000000000

 
 Subroutine IBZKPT returns following result:
 ===========================================
 
 Found      1 irreducible k-points:
 
 Following reciprocal coordinates:
            Coordinates               Weight
  0.000000  0.000000  0.000000      1.000000
 
 Following cartesian coordinates:
            Coordinates               Weight
  0.000000  0.000000  0.000000      1.000000
 
 
 Subroutine IBZKPT_HF returns following result:
 ==============================================
 
 Found      1 k-points in 1st BZ
[...]
      0.00005     10.50639     11.70833         0.000553     -0.000233     -0.001272
      6.30422     10.50468     13.78235         0.000069     -0.001866      0.001547
      0.00016      8.40504     13.78795        -0.000934     -0.000169      0.001479
      6.30365     12.60729      7.50000         0.001805     -0.002831      0.455851
      0.00000     14.70851      7.50000        -0.000029     -0.000938      0.454366
      6.30365     14.70851      9.60122        -0.001882     -0.001617      0.013638
      0.00000     12.60729      9.60122         0.000372      0.000162      0.015415
      6.30394     12.60748     11.70771        -0.001123     -0.001044     -0.000098
      0.00007     14.70891     11.70856         0.001022     -0.000756     -0.001287
      6.30413     14.70882     13.78824         0.001308      0.001793      0.001087
      0.00014     12.60766     13.78884         0.000552      0.000229     -0.000272
     10.50608      0.00000      7.50000        -0.000264      0.002357      0.454208
     12.60729      2.10122      7.50000        -0.002508      0.002537      0.456015
     10.50608      2.10122      9.60122        -0.002196      0.011393      0.017629
     12.60729      0.00000      9.60122        -0.000453      0.001940      0.014750
     10.50605      0.00023     11.70773        -0.000659      0.003119      0.002400
     12.60720      2.10150     11.70777        -0.001925      0.002358      0.000918
     10.50521      2.10296     13.78419        -0.001571      0.001869      0.000320
     12.60713      0.00065     13.78829        -0.001996      0.002668      0.001007
     10.50608      4.20243      7.50000        -0.002581      0.003148      0.459877
     12.60729      6.30365      7.50000        -0.004039      0.000710      0.459665
     10.50608      6.30365      9.60122         0.004942     -0.000689      0.023840
     12.60729      4.20243      9.60122        -0.007671      0.006788      0.016109
     10.50491      4.20512     11.70842        -0.002098      0.001032      0.004843
     12.60453      6.30397     11.70849        -0.003155     -0.001231      0.002407
     10.49659      6.30559     13.79902        -0.001445     -0.001028     -0.000601
     12.60562      4.20367     13.78476        -0.004330      0.000446     -0.000074
     14.70851      0.00000      7.50000        -0.001740      0.000925      0.454325
      8.40486      2.10122      7.50000         0.000207      0.004870      0.457450
     14.70851      2.10122      9.60122        -0.003151      0.003528      0.014867
      8.40486      0.00000      9.60122        -0.000056      0.007024      0.015904
     14.70856      0.00028     11.70853         0.000050      0.000966     -0.001377
      8.40501      2.10327     11.70744         0.000506      0.003588      0.005136
     14.70840      2.10194     13.78842        -0.002452      0.000394      0.000642
      8.40502      0.00119     13.78781         0.000128      0.001747      0.002809
     14.70851      4.20243      7.50000        -0.002392      0.001656      0.455835
      8.40486      6.30365      7.50000         0.000417     -0.000063      0.457686
     14.70851      6.30365      9.60122        -0.011409     -0.001626      0.016458
      8.40486      4.20243      9.60122         0.001109      0.000908      0.021759
     14.70837      4.20285     11.70809        -0.001775      0.000272     -0.000321
      8.40583      6.30547     11.70672         0.000128     -0.000784      0.003450
     14.70800      6.30420     13.78796        -0.001059      0.000340      0.000804
      8.40559      4.21231     13.78863         0.001597     -0.000758     -0.000067
     10.50608      8.40486      7.50000        -0.001726     -0.002362      0.458644
     12.60729     10.50608      7.50000        -0.002856     -0.003255      0.455750
     10.50608     10.50608      9.60122        -0.004885     -0.006035      0.015734
     12.60729      8.40486      9.60122        -0.007942     -0.006278      0.016979
     10.50409      8.40315     11.70880        -0.001811     -0.002317      0.003689
     12.60756     10.50642     11.70689        -0.000549     -0.001558     -0.000041
     10.50566     10.50546     13.78014        -0.001293     -0.003554      0.000323
     12.60644      8.40522     13.78125        -0.002078     -0.002051      0.001381
     10.50608     12.60729      7.50000        -0.001785     -0.002842      0.455745
     12.60729     14.70851      7.50000        -0.000995      0.000194      0.455437
     10.50608     14.70851      9.60122         0.001949     -0.001303      0.012301
     12.60729     12.60729      9.60122        -0.000490     -0.000352      0.011536
     10.50594     12.60775     11.70729        -0.000785     -0.000687     -0.000239
     12.60756     14.70876     11.70844        -0.001338      0.000592     -0.002456
     10.50590     14.70895     13.78794        -0.001838      0.001837      0.002053
     12.60730     12.60764     13.78797        -0.000627     -0.001626      0.000588
     14.70851      8.40486      7.50000        -0.003579     -0.001279      0.454579
      8.40486     10.50608      7.50000         0.000115     -0.003263      0.458379
     14.70851     10.50608      9.60122        -0.002181      0.001110      0.013198
      8.40486      8.40486      9.60122         0.000377      0.003868      0.024008
     14.70870      8.40482     11.70739        -0.000542     -0.000165      0.000214
      8.40492     10.50330     11.70824        -0.000675     -0.002731      0.001529
     14.70867     10.50635     13.78804        -0.000604     -0.001972      0.000736
      8.40543      8.39604     13.80070         0.000796     -0.003054     -0.000269
     14.70851     12.60729      7.50000        -0.000592     -0.001051      0.455570
      8.40486     14.70851      7.50000         0.000078     -0.001276      0.453369
     14.70851     14.70851      9.60122        -0.001693     -0.001228      0.014560
      8.40486     12.60729      9.60122        -0.000231     -0.009921      0.016771
     14.70876     12.60771     11.70848        -0.000048     -0.000941     -0.002229
      8.40489     14.70865     11.70833        -0.000750      0.000188      0.001427
     14.70876     14.70913     13.78874         0.000636      0.000960      0.000832
      8.40495     12.60665     13.78777         0.000015      0.000920      0.001464
      2.10122      0.00000      9.60122        -0.002253     -0.000061      0.032526
      4.20243      2.10122      9.60122        -0.003441     -0.003909      0.030935
      2.10122      2.10122      7.50000        -0.001518     -0.001452     -0.503856
      4.20243      0.00000      7.50000        -0.001408     -0.001307     -0.503878
      2.10159      0.00055     13.83492        -0.001559      0.000125     -0.000430
      4.20305      2.10165     13.83518        -0.003519     -0.000767      0.001773
      2.10133      2.10121     11.70215        -0.002929      0.000581      0.003347
      4.20249      0.00019     11.70231        -0.001315     -0.001510      0.000344
      2.10122      4.20243      9.60122        -0.004655     -0.001447      0.032109
      4.20243      6.30365      9.60122        -0.016358     -0.000211      0.018530
      2.10122      6.30365      7.50000        -0.003593     -0.000209     -0.504696
      4.20243      4.20243      7.50000        -0.004095     -0.002735     -0.503630
      2.10173      4.20316     13.83481        -0.002328     -0.002224      0.000845
      4.20378      6.30449     13.83857        -0.002211      0.000743      0.001689
      2.10145      6.30371     11.70244        -0.001001      0.001831      0.001383
      4.20201      4.20227     11.70217        -0.002839     -0.000531      0.000360
      6.30365      0.00000      9.60122         0.000486     -0.003273      0.031316
      0.00000      2.10122      9.60122         0.000576     -0.002035      0.033059
      6.30365      2.10122      7.50000        -0.002429     -0.004121     -0.505556
      0.00000      0.00000      7.50000         0.000059     -0.000516     -0.507934
      6.30424      0.00063     13.83473        -0.001735     -0.001260      0.001259
      0.00013      2.10192     13.83479         0.001620     -0.000752      0.000210
      6.30338      2.10083     11.70204        -0.000270     -0.001861     -0.002085
      0.00012      0.00019     11.70286         0.000025      0.001524      0.003643
      6.30365      4.20243      9.60122        -0.007830     -0.008317      0.018570
      0.00000      6.30365      9.60122         0.000410      0.001961      0.034320
      6.30365      6.30365      7.50000        -0.002536     -0.000528     -0.507535
      0.00000      4.20243      7.50000         0.000300     -0.001027     -0.503632
      6.30339      4.20211     13.83513        -0.002664     -0.000845      0.003353
      0.00013      6.30408     13.83490        -0.000269      0.000643      0.001137
      6.29924      6.30358     11.69879        -0.002097      0.001510     -0.001166
     -0.00001      4.20271     11.70226         0.001787     -0.001639      0.001233
      2.10122      8.40486      9.60122        -0.008361      0.001589      0.029283
      4.20243     10.50608      9.60122        -0.005250      0.004939      0.027543
      2.10122     10.50608      7.50000        -0.001668      0.001570     -0.503862
      4.20243      8.40486      7.50000        -0.004411      0.002376     -0.505856
      2.10153      8.40522     13.83434        -0.000933     -0.000421      0.001626
      4.20208     10.50686     13.83440        -0.001378      0.001632      0.002370
      2.10087     10.50656     11.70199        -0.001468     -0.002013      0.001898
      4.20104      8.40574     11.70085        -0.002456     -0.001244     -0.000369
      2.10122     12.60729      9.60122        -0.002216      0.002164      0.031470
      4.20243     14.70851      9.60122        -0.000869      0.002305      0.032492
      2.10122     14.70851      7.50000        -0.000706      0.000353     -0.503902
      4.20243     12.60729      7.50000        -0.001638      0.001956     -0.501830
      2.10112     12.60769     13.83474        -0.000801      0.001372      0.000629
      4.20283     14.70904     13.83459        -0.001758     -0.000745      0.000711
      2.10104     14.70888     11.70219         0.001327      0.000577      0.002873
      4.20214     12.60768     11.70195         0.000589      0.002442      0.003003
      6.30365      8.40486      9.60122        -0.006026      0.007981      0.019317
      0.00000     10.50608      9.60122         0.000141     -0.000225      0.031829
      6.30365     10.50608      7.50000        -0.003004      0.004359     -0.505927
      0.00000      8.40486      7.50000         0.000275      0.000860     -0.507943
      6.30003      8.40809     13.83009         0.000103      0.000443      0.003887
      0.00011     10.50618     13.83473        -0.000283      0.001428      0.000402
      6.30306     10.50776     11.70105         0.000881      0.001150      0.000060
     -0.00004      8.40498     11.70278         0.002135     -0.000447      0.000642
      6.30365     12.60729      9.60122        -0.000760      0.007434      0.029130
      0.00000     14.70851      9.60122         0.000039      0.002685      0.031961
      6.30365     14.70851      7.50000        -0.000883      0.000613     -0.503672
      0.00000     12.60729      7.50000        -0.000012      0.000944     -0.503856
      6.30395     12.60720     13.83455        -0.000863      0.001411      0.001682
      0.00025     14.70915     13.83475        -0.000885     -0.000194      0.000813
      6.30377     14.70883     11.70214         0.000670     -0.000629      0.000930
      0.00014     12.60771     11.70215        -0.001114     -0.000239      0.003379
     10.50608      0.00000      9.60122        -0.000362     -0.004825      0.029998
     12.60729      2.10122      9.60122         0.004966     -0.004840      0.029314
     10.50608      2.10122      7.50000         0.002139     -0.004400     -0.505631
     12.60729      0.00000      7.50000         0.001430     -0.001506     -0.503737
     10.50578      0.00074     13.83449         0.002837     -0.002971      0.001245
     12.60731      2.10141     13.83506         0.003388     -0.002381      0.001687
     10.50669      2.10040     11.70144        -0.001138     -0.002642     -0.003084
     12.60757      0.00013     11.70216         0.000097     -0.002589      0.001283
     10.50608      4.20243      9.60122         0.007683     -0.007482      0.018990
     12.60729      6.30365      9.60122         0.015698     -0.000657      0.018787
     10.50608      6.30365      7.50000         0.002009     -0.000413     -0.507791
     12.60729      4.20243      7.50000         0.004190     -0.003062     -0.503852
     10.50761      4.20044     13.83272         0.002273      0.000355      0.003166
     12.60646      6.30444     13.84038         0.004346     -0.000667      0.002860
     10.51074      6.30354     11.69988         0.002121      0.000877     -0.004131
     12.60830      4.20207     11.70186         0.003709      0.002026     -0.000420
     14.70851      0.00000      9.60122         0.002977     -0.000277      0.032262
      8.40486      2.10122      9.60122        -0.000747     -0.018065      0.018119
     14.70851      2.10122      7.50000         0.001793     -0.001675     -0.503835
      8.40486      0.00000      7.50000        -0.000113     -0.003277     -0.508604
     14.70872      0.00058     13.83481         0.000084     -0.002001      0.000195
      8.40522      2.10300     13.83724        -0.001601     -0.001116      0.002074
     14.70868      2.10125     11.70220         0.002543     -0.001034      0.001398
      8.40484      0.00037     11.70323         0.000484     -0.001035     -0.003061
     14.70851      4.20243      9.60122         0.006208     -0.001535      0.030848
      8.40486      6.30365      9.60122         0.000842      0.003756      0.018806
     14.70851      6.30365      7.50000         0.004070     -0.000154     -0.504812
      8.40486      4.20243      7.50000        -0.000404     -0.002818     -0.507395
     14.70842      4.20291     13.83497         0.000489      0.000039      0.000823
      8.40462      6.30401     13.79022        -0.002147      0.001194      0.003752
     14.70845      6.30373     11.70256        -0.001169      0.000611      0.002019
      8.40483      4.19852     11.69829        -0.000795     -0.002486     -0.004924
     10.50608      8.40486      9.60122         0.005446      0.007223      0.020163
     12.60729     10.50608      9.60122         0.006615      0.006198      0.026700
     10.50608     10.50608      7.50000         0.002841      0.004583     -0.505799
     12.60729      8.40486      7.50000         0.004428      0.002832     -0.505885
     10.51132      8.41013     13.82563        -0.000213      0.002889      0.002920
     12.60798     10.50705     13.83478         0.001092      0.003341      0.001051
     10.50668     10.50837     11.70019         0.001255      0.001834     -0.000054
     12.60952      8.40573     11.70032         0.002508      0.000273     -0.002452
     10.50608     12.60729      9.60122         0.001088      0.009502      0.027469
     12.60729     14.70851      9.60122         0.001195      0.002099      0.032612
     10.50608     14.70851      7.50000         0.000814      0.000572     -0.503635
     12.60729     12.60729      7.50000         0.001665      0.002017     -0.501558
     10.50608     12.60739     13.83388         0.002035      0.000369      0.001211
     12.60715     14.70912     13.83455         0.002016     -0.000811      0.000109
     10.50601     14.70889     11.70205         0.000576     -0.000607      0.000070
     12.60779     12.60787     11.70180        -0.000207      0.000912      0.003751
     14.70851      8.40486      9.60122         0.010447      0.002052      0.027240
      8.40486     10.50608      9.60122        -0.001084      0.014383      0.017451
     14.70851     10.50608      7.50000         0.001780      0.001813     -0.503716
      8.40486      8.40486      7.50000        -0.000295      0.002061     -0.511952
     14.70840      8.40530     13.83431         0.001048      0.000002      0.001623
      8.40498     10.50561     13.84001        -0.000115      0.002134      0.001699
     14.70909     10.50648     11.70201        -0.000222      0.001303      0.001754
      8.40461      8.40968     11.70045        -0.000186      0.002561     -0.000870
     14.70851     12.60729      9.60122         0.002516      0.002114      0.031995
      8.40486     14.70851      9.60122         0.000136      0.002396      0.034221
     14.70851     14.70851      7.50000         0.000729      0.000279     -0.503754
      8.40486     12.60729      7.50000        -0.000055      0.004299     -0.504734
     14.70893     12.60783     13.83469         0.000119      0.000946     -0.000209
      8.40510     14.70893     13.83487        -0.000503     -0.002659      0.000224
     14.70887     14.70894     11.70211        -0.001349     -0.000050      0.003892
      8.40484     12.60715     11.70256        -0.000116      0.001236      0.000234
 -----------------------------------------------------------------------------------
    total drift:                                0.004503     -0.012351      0.004252


--------------------------------------------------------------------------------------------------------



  FREE ENERGIE OF THE ION-ELECTRON SYSTEM (eV)
  ---------------------------------------------------
  free  energy   TOTEN  =     -1841.56005539 eV

  energy  without entropy=    -1841.56005539  energy(sigma->0) =    -1841.56005539

 d Force = 0.4680379E-04[ 0.408E-04, 0.529E-04]  d Energy = 0.4919930E-04-0.240E-05
 d Force = 0.2133104E+01[ 0.213E+01, 0.213E+01]  d Ewald  = 0.2133105E+01-0.486E-06


--------------------------------------------------------------------------------------------------------


    POTLOK:  cpu time      1.1540: real time      1.1541


--------------------------------------------------------------------------------------------------------


 Conjugate gradient step on ions:
 trial-energy change:   -0.000049  1 .order   -0.000047   -0.000053   -0.000041
  (g-gl).g = 0.170E-03      g.g   = 0.222E-03  gl.gl    = 0.326E-03
 g(Force)  = 0.222E-03   g(Stress)= 0.000E+00 ortho     =-0.323E-04
 gamma     =   0.52159
 trial     =   0.25734
 opt step  =   1.02935  (harmonic =   1.12423) maximal distance =0.00165391
 next E    = -1841.560122   (d E  =  -0.00012)


--------------------------------------------------------------------------------------------------------


  
 reached required accuracy - stopping structural energy minimisation
     LOOP+:  cpu time   1801.1754: real time   1801.8481
    4ORBIT:  cpu time      0.0000: real time      0.0000

 total amount of memory used by VASP MPI-rank0   388817. kBytes
=======================================================================

   base      :      30000. kBytes
   nonlr-proj:      18311. kBytes
   fftplans  :      13983. kBytes
   grid      :      18768. kBytes
   one-center:        137. kBytes
   HF        :        135. kBytes
   wavefun   :       3003. kBytes
   fock_wrk  :     304480. kBytes

  
  
 General timing and accounting informations for this job:
 ========================================================
  
                  Total CPU time used (sec):    89414.766
                            User time (sec):    89168.849
                          System time (sec):      245.917
                         Elapsed time (sec):    89480.289
  
                   Maximum memory used (kb):      877444.
                   Average memory used (kb):          N/A
  
                          Minor page faults:      8199942
                          Major page faults:           49
                 Voluntary context switches:       155379
