 **********************************************************************
                          MRCC program system
 **********************************************************************
 
                              Written by
     Mihaly Kallay, Peter R. Nagy, David Mester, Laszlo Gyevi-Nagy,
        Jozsef Csoka, P. Bernat Szabo, Zoltan Rolik, Gyula Samu,
     Jozsef Csontos, Bence Hegely, Adam Ganyecz, Istvan Ladjanszki,
       Lorant Szegedy, Bence Ladoczki, Klara Petrov, Mate Farkas,
                    Pal D. Mezei, and Reka A. Horvath
 
        Department of Physical Chemistry and Materials Science
            Budapest University of Technology and Economics
                  Budapest P.O.Box 91, H-1521 Hungary
 
                              www.mrcc.hu
 
                      Release date: March 18, 2022

 ************************ 2023-02-23 03:01:03 *************************
 Executing minp...

 Reading input from MINP...
 
 Input file:
 
calc=DF-CCSD(T)
scftype=rhf
verbosity=3
mem=240GB
symm=off
unit=angs
scfiguess=small
scfmaxit=1000
scfalg=locfit1


ccmaxit=400
ccsdalg=dfdirect
ccsdthreads=4
ccsdmkl=thr
ptthreads=4

charge=0
core=1

basis=special
aug-cc-pVDZ
aug-cc-pVDZ
aug-cc-pVDZ
aug-cc-pVDZ
bse_CVDZ
aug-cc-pVDZ
aug-cc-pVDZ
aug-cc-pVDZ
aug-cc-pVDZ
aug-cc-pVDZ

basis_sm=special
def2-SVP
def2-SVP
def2-SVP
def2-SVP
def2-SVP
def2-SVP
def2-SVP
def2-SVP
def2-SVP
def2-SVP

dfbasis_scf=special
def2-QZVPP-RI-JK
def2-QZVPP-RI-JK
def2-QZVPP-RI-JK
def2-QZVPP-RI-JK
def2-QZVPP-RI-JK
def2-QZVPP-RI-JK
def2-QZVPP-RI-JK
def2-QZVPP-RI-JK
def2-QZVPP-RI-JK
def2-QZVPP-RI-JK

dfbasis_cor=special
aug-cc-pVDZ-RI
aug-cc-pVDZ-RI
aug-cc-pVDZ-RI
aug-cc-pVDZ-RI
bse_CVDZ_mp2fit
aug-cc-pVDZ-RI
aug-cc-pVDZ-RI
aug-cc-pVDZ-RI
aug-cc-pVDZ-RI
aug-cc-pVDZ-RI

ecp=special
none
none
none
none
none
none
none
none
none
none

unit=angs
geom=xyz
10
N1 H3 Mg1 O5 ECP25
N     0.00000172217    0.14246194211    2.24974477932
H    -0.00000044480    1.15159353534    2.41059950142
H    -0.82663383591   -0.24686120021    2.70342152179
H     0.82663440365   -0.24685899594    2.70342511145
Mg    0.00000000000    0.00000000000    0.00000000000
O    -0.00000026524   -2.12128837888   -0.08552188977
O    -2.13242008140    0.01088097006   -0.08101545754
O     2.13241990996    0.01088082855   -0.08101541346
O    -0.00000031576    2.14636681921   -0.07343007474
O    -0.00000023981    0.01184325360   -2.22236962301

ghost=serialno
5-10

 
 
 Checking keyword combinations...
 
 Keywords:
 
 active=none
--------------------Output has been truncated-------------------------


--------------------Output has been truncated-------------------------


--------------------Output has been truncated-------------------------


--------------------Output has been truncated-------------------------


--------------------Output has been truncated-------------------------


--------------------Output has been truncated-------------------------


--------------------Output has been truncated-------------------------


--------------------Output has been truncated-------------------------


--------------------Output has been truncated-------------------------


--------------------Output has been truncated-------------------------


 ************************ 2023-02-23 03:01:22 *************************
 Executing ccsd...

 Allocation of 240.0 Gbytes of memory...

 Direct DF-CCSD(T) calculation
 
 Convergence criterion:  1.0E-06
 
 Number of occupied/virtual/auxiliary orbitals:     4   187   618
   1028.52 MB is the minimal memory requirement for (T)
    204.96 MB is the minimal memory requirement for CCSD
 
 Reference energy [au]:             -56.205489062566
 T1 contribution [au]:                0.000000000000
 Same spin MP2 energy [au]:          -0.046474136556
 Opposite spin MP2 energy [au]:      -0.154564543403
 MP2 correlation energy [au]:        -0.201038679959
 Total MP2 energy [au]:             -56.406527742525
 
 
 CPU time [min]:     0.123                   Wall time [min]:     0.020
 
 Starting CCSD iterations...
 
                     Residual norm          Energy
 Iteration  1        0.119442966219      -56.415951772457
 Iteration  2        0.032831564909      -56.420632065080
 Iteration  3        0.010104544373      -56.421604449632
 Iteration  4        0.002638321830      -56.421585952893
 Iteration  5        0.000808085551      -56.421595552963
 Iteration  6        0.000245350748      -56.421598527017
 Iteration  7        0.000095102790      -56.421596658556
 Iteration  8        0.000034765794      -56.421595968146
 Iteration  9        0.000014257170      -56.421595896805
 Iteration 10        0.000005164630      -56.421595854124
 
 CCSD iteration has converged in 10 steps.
     4909.53 MB memory was utilized by CCSD
 
 T1 diagnostic:      9.719E-03            D1 diagnostic:      2.324E-02
 
 T1 contribution [au]:                                  0.000000000000
 Opposite spin CCSD energy [au]:                       -0.173929802471
 Same spin CCSD energy [au]:                           -0.042176989087
 CCSD correlation energy [au]:                         -0.216106791558
 Total CCSD energy [au]:                              -56.421595854124
 
 CPU time [min]:     8.362                   Wall time [min]:     0.251
 
 Calculation of (T) correction...
 
 
      781.21 MB memory is utilized for (T)

 0%       25%       50%       75%       100%
 |---------|---------|---------|---------| 
 
 (T) correction [au]:                                    -0.005673225247
 CCSD(T) correlation energy [au]:                        -0.221780016805
 Total CCSD(T) energy [au]:                             -56.427269079371
 
 CPU time [min]:     8.991                   Wall time [min]:     0.295
 
 ************************ 2023-02-23 03:01:39 *************************
                      Normal termination of mrcc.
 **********************************************************************
