 vasp.6.4.2 20Jul23 (build Feb 22 2024 13:53:45) complex                         
 executed on              LinuxNV date 2024.08.28  20:01:09
 running    4 mpi-ranks, with    1 threads/rank, on    1 nodes
 distrk:  each k-point on    4 cores,    1 groups
 distr:  one band on NCORE=   1 cores,    4 groups
 OpenACC runtime initialized ...    4 GPUs detected


--------------------------------------------------------------------------------------------------------


 INCAR:
   SYSTEM = Oxide-Surface
   ISMEAR = 0
   SIGMA = 0.05
   EDIFF = 1E-5
   ALGO = Normal
   IBRION = -1
   NSW = 0
   ISYM = 0
   DIPOL = 0.5 0.5 0.5
   IDIPOL = 3
   LDIPOL = .TRUE.
   ISTART = 1
   GGA = MK
   LUSE_VDW = .TRUE.
   PARAM1 = 0.1234
   PARAM2 = 0.711357
   ZAB_VDW = -1.8867
   AGGAC = 0.0
   ENCUT = 1000
   PREC = Normal
   PRECFOCK = Normal
   LASPH = .TRUE.
   LREAL = Auto
   ISPIN = 1
   NELM = 200
   NELMIN = 8
   NCORE = 1
   KPAR = 1
   LWAVE = .FALSE.
   LCHARG = .FALSE.

 POTCAR:    PAW_PBE H_h 06Feb2004                 
 POTCAR:    PAW_PBE O_h 06Feb2004                 
 POTCAR:    PAW_PBE Ti_sv 26Sep2005               
 POTCAR:    PAW_PBE O_h 06Feb2004                 
 -----------------------------------------------------------------------------
|                                                                             |
|               ----> ADVICE to this user running VASP <----                  |
|                                                                             |
|     You have switched on vdW-DFT.                                           |
|     This routine was written and supplied by Jiri Klimes. We recommend      |
|     that you carefully read and cite the following publications:            |
|       J. Klimes, D.R. Bowler, A. Michelides                                 |
|          J. Phys.: Cond Matt. 22 022201 (2010)                              |
|       J. Klimes, D.R. Bowler, A. Michelides                                 |
|          Phys. Rev. B. 83, 195131 (2011)                                    |
|     and references therein.                                                 |
|                                                                             |
 -----------------------------------------------------------------------------

 POTCAR:    PAW_PBE H_h 06Feb2004                 
   SHA256 =  143491dd1ce685661e07aa76f96d5d154a7e3c51c1da76ab67ad499446e4b766 H_h/POTCAR            
   COPYR  = (c) Copyright 06Feb2004 Georg Kresse                                                    
   COPYR  = This file is part of the software VASP. Any use, copying, and all other rights are regul
   COPYR  = If you do not have a valid VASP license, you may not use, copy or distribute this file. 
   VRHFIN =H: ultrasoft test                                                                        
   LEXCH  = PE                                                                                      
   EATOM  =    12.4884 eV,    0.9179 Ry                                                             
                                                                                                    
   TITEL  = PAW_PBE H_h 06Feb2004                                                                   
   LULTRA =        F    use ultrasoft PP ?                                                          
   IUNSCR =        0    unscreen: 0-lin 1-nonlin 2-no                                               
   RPACOR =    0.000    partial core radius                                                         
   POMASS =    1.000; ZVAL   =    1.000    mass and valenz                                          
   RCORE  =    0.800    outmost cutoff radius                                                       
   RWIGS  =    0.700; RWIGS  =    0.370    wigner-seitz radius (au A)                               
   ENMAX  =  700.000; ENMIN  =  350.000 eV                                                          
   RCLOC  =    0.701    cutoff for local pot                                                        
   LCOR   =        T    correct aug charges                                                         
   LPAW   =        T    paw PP                                                                      
   EAUG   = 1000.000                                                                                
   RMAX   =    0.819    core radius for proj-oper                                                   
   RAUG   =    1.000    factor for augmentation sphere                                              
   RDEP   =    0.817    radius for radial grids                                                     
   RDEPT  =    0.817    core radius for aug-charge                                                  
                                                                                                    
   Atomic configuration                                                                             
    2 entries                                                                                       
     n  l   j            E        occ.                                                              
     1  0  0.50        -6.4927   1.0000                                                             
     2  1  0.50        -3.4015   0.0000                                                             
   Description                                                                                      
     l       E           TYP  RCUT    TYP  RCUT                                                     
     0     -6.4927493     23  0.800                                                                 
     0      6.8029130     23  0.800                                                                 
     1     -6.8029130     23  0.800                                                                 
  local pseudopotential read in
  atomic valenz-charges read in
  non local Contribution for L=            0  read in
    real space projection operators read in
  non local Contribution for L=            0  read in
    real space projection operators read in
  non local Contribution for L=            1  read in
    real space projection operators read in
    PAW grid and wavefunctions read in
 
   number of l-projection  operators is LMAX  =            3
   number of lm-projection operators is LMMAX =            5
 
 POTCAR:    PAW_PBE O_h 06Feb2004                 
   SHA256 =  7d3976308dcfb86c51a8aa000428ccf502aeca0a26316d98530ed0719b164db2 O_h/POTCAR            
   COPYR  = (c) Copyright 06Feb2004 Georg Kresse                                                    
   COPYR  = This file is part of the software VASP. Any use, copying, and all other rights are regul
   COPYR  = If you do not have a valid VASP license, you may not use, copy or distribute this file. 
   VRHFIN =O: s2p4                                                                                  
   LEXCH  = PE                                                                                      
   EATOM  =   432.3788 eV,   31.7789 Ry                                                             
                                                                                                    
   TITEL  = PAW_PBE O_h 06Feb2004                                                                   
   LULTRA =        F    use ultrasoft PP ?                                                          
   IUNSCR =        1    unscreen: 0-lin 1-nonlin 2-no                                               
   RPACOR =    0.800    partial core radius                                                         
   POMASS =   16.000; ZVAL   =    6.000    mass and valenz                                          
   RCORE  =    1.100    outmost cutoff radius                                                       
   RWIGS  =    1.400; RWIGS  =    0.741    wigner-seitz radius (au A)                               
   ENMAX  =  700.000; ENMIN  =  500.000 eV                                                          
   ICORE  =        2    local potential                                                             
   LCOR   =        T    correct aug charges                                                         
   LPAW   =        T    paw PP                                                                      
   EAUG   =  888.804                                                                                
   DEXC   =    0.000                                                                                
   RMAX   =    1.128    core radius for proj-oper                                                   
   RAUG   =    1.300    factor for augmentation sphere                                              
   RDEP   =    1.125    radius for radial grids                                                     
   RDEPT  =    1.088    core radius for aug-charge                                                  
                                                                                                    
   Atomic configuration                                                                             
    4 entries                                                                                       
     n  l   j            E        occ.                                                              
     1  0  0.50      -514.6923   2.0000                                                             
     2  0  0.50       -23.9615   2.0000                                                             
     2  1  0.50        -9.0305   4.0000                                                             
     3  2  1.50        -9.5241   0.0000                                                             
   Description                                                                                      
     l       E           TYP  RCUT    TYP  RCUT                                                     
     0    -23.9615319     23  1.100                                                                 
     0    -25.3221145     23  1.100                                                                 
     1     -9.0304911     23  1.100                                                                 
     1     -5.4802209     23  1.100                                                                 
     2     -9.5240782      7  1.100                                                                 
  local pseudopotential read in
  partial core-charges read in
  partial kinetic energy density read in
  atomic valenz-charges read in
  non local Contribution for L=            0  read in
    real space projection operators read in
  non local Contribution for L=            0  read in
    real space projection operators read in
  non local Contribution for L=            1  read in
    real space projection operators read in
  non local Contribution for L=            1  read in
    real space projection operators read in
    PAW grid and wavefunctions read in
 
   number of l-projection  operators is LMAX  =            4
   number of lm-projection operators is LMMAX =            8
 
 POTCAR:    PAW_PBE Ti_sv 26Sep2005               
   SHA256 =  4d747badb5a5ea28d858fbac70885b3f8929d6fd9e5b0dbe1ecb9878dc164da1 Ti_sv/POTCAR          
   COPYR  = (c) Copyright 26Sep2005 Georg Kresse                                                    
   COPYR  = This file is part of the software VASP. Any use, copying, and all other rights are regul
   COPYR  = If you do not have a valid VASP license, you may not use, copy or distribute this file. 
   VRHFIN =Ti: 3p4s3d                                                                               
   LEXCH  = PE                                                                                      
   EATOM  =  1588.0892 eV,  116.7213 Ry                                                             
                                                                                                    
   TITEL  = PAW_PBE Ti_sv 26Sep2005                                                                 
   LULTRA =        F    use ultrasoft PP ?                                                          
   IUNSCR =        1    unscreen: 0-lin 1-nonlin 2-no                                               
   RPACOR =    2.000    partial core radius                                                         
   POMASS =   47.880; ZVAL   =   12.000    mass and valenz                                          
   RCORE  =    2.300    outmost cutoff radius                                                       
   RWIGS  =    2.300; RWIGS  =    1.217    wigner-seitz radius (au A)                               
   ENMAX  =  274.610; ENMIN  =  205.957 eV                                                          
   ICORE  =        3    local potential                                                             
   LCOR   =        T    correct aug charges                                                         
   LPAW   =        T    paw PP                                                                      
   EAUG   =  482.848                                                                                
   RMAX   =    2.348    core radius for proj-oper                                                   
   RAUG   =    1.300    factor for augmentation sphere                                              
   RDEP   =    2.381    radius for radial grids                                                     
   RDEPT  =    1.930    core radius for aug-charge                                                  
                                                                                                    
   Atomic configuration                                                                             
    8 entries                                                                                       
     n  l   j            E        occ.                                                              
     1  0  0.50     -4865.3608   2.0000                                                             
     2  0  0.50      -533.1368   2.0000                                                             
     2  1  1.50      -440.5031   6.0000                                                             
     3  0  0.50       -59.3186   2.0000                                                             
     4  0  0.50        -3.7291   1.0000                                                             
     3  1  1.50       -35.7012   6.0000                                                             
     3  2  2.50        -1.9157   3.0000                                                             
     4  3  2.50        -1.3606   0.0000                                                             
   Description                                                                                      
     l       E           TYP  RCUT    TYP  RCUT                                                     
     0    -59.3185931     23  1.800                                                                 
     0     -3.7290822     23  2.300                                                                 
     1    -35.7012045     23  2.300                                                                 
     1     -1.3605826     23  2.300                                                                 
     2     -1.9156920     23  2.300                                                                 
     2     -0.0236318     23  2.300                                                                 
     3     -1.3605826     23  2.300                                                                 
  local pseudopotential read in
  partial core-charges read in
  partial kinetic energy density read in
  atomic valenz-charges read in
  non local Contribution for L=            0  read in
    real space projection operators read in
  non local Contribution for L=            0  read in
    real space projection operators read in
  non local Contribution for L=            1  read in
    real space projection operators read in
  non local Contribution for L=            1  read in
    real space projection operators read in
  non local Contribution for L=            2  read in
    real space projection operators read in
  non local Contribution for L=            2  read in
    real space projection operators read in
    PAW grid and wavefunctions read in
 
   number of l-projection  operators is LMAX  =            6
   number of lm-projection operators is LMMAX =           18
 
 POTCAR:    PAW_PBE O_h 06Feb2004                 
   SHA256 =  7d3976308dcfb86c51a8aa000428ccf502aeca0a26316d98530ed0719b164db2 O_h/POTCAR            
   COPYR  = (c) Copyright 06Feb2004 Georg Kresse                                                    
   COPYR  = This file is part of the software VASP. Any use, copying, and all other rights are regul
   COPYR  = If you do not have a valid VASP license, you may not use, copy or distribute this file. 
   VRHFIN =O: s2p4                                                                                  
   LEXCH  = PE                                                                                      
   EATOM  =   432.3788 eV,   31.7789 Ry                                                             
                                                                                                    
   TITEL  = PAW_PBE O_h 06Feb2004                                                                   
   LULTRA =        F    use ultrasoft PP ?                                                          
   IUNSCR =        1    unscreen: 0-lin 1-nonlin 2-no                                               
   RPACOR =    0.800    partial core radius                                                         
   POMASS =   16.000; ZVAL   =    6.000    mass and valenz                                          
   RCORE  =    1.100    outmost cutoff radius                                                       
   RWIGS  =    1.400; RWIGS  =    0.741    wigner-seitz radius (au A)                               
   ENMAX  =  700.000; ENMIN  =  500.000 eV                                                          
   ICORE  =        2    local potential                                                             
   LCOR   =        T    correct aug charges                                                         
   LPAW   =        T    paw PP                                                                      
   EAUG   =  888.804                                                                                
   DEXC   =    0.000                                                                                
   RMAX   =    1.128    core radius for proj-oper                                                   
   RAUG   =    1.300    factor for augmentation sphere                                              
   RDEP   =    1.125    radius for radial grids                                                     
   RDEPT  =    1.088    core radius for aug-charge                                                  
                                                                                                    
   Atomic configuration                                                                             
    4 entries                                                                                       
     n  l   j            E        occ.                                                              
     1  0  0.50      -514.6923   2.0000                                                             
     2  0  0.50       -23.9615   2.0000                                                             
     2  1  0.50        -9.0305   4.0000                                                             
     3  2  1.50        -9.5241   0.0000                                                             
   Description                                                                                      
     l       E           TYP  RCUT    TYP  RCUT                                                     
     0    -23.9615319     23  1.100                                                                 
     0    -25.3221145     23  1.100                                                                 
     1     -9.0304911     23  1.100                                                                 
     1     -5.4802209     23  1.100                                                                 
     2     -9.5240782      7  1.100                                                                 
  local pseudopotential read in
  partial core-charges read in
  partial kinetic energy density read in
  atomic valenz-charges read in
  non local Contribution for L=            0  read in
    real space projection operators read in
  non local Contribution for L=            0  read in
    real space projection operators read in
  non local Contribution for L=            1  read in
    real space projection operators read in
  non local Contribution for L=            1  read in
    real space projection operators read in
    PAW grid and wavefunctions read in
 
   number of l-projection  operators is LMAX  =            4
   number of lm-projection operators is LMMAX =            8
 
 Optimization of the real space projectors (new method)

 maximal supplied QI-value         = 47.24
 optimisation between [QCUT,QGAM] = [ 16.06, 32.13] = [ 72.25,289.00] Ry 
 Optimized for a Real-space Cutoff    0.82 Angstroem

   l    n(q)    QCUT    max X(q) W(low)/X(q) W(high)/X(q)  e(spline) 
   0      8    16.063    34.671    0.37E-03    0.85E-03    0.24E-06
   0      8    16.063    17.046    0.36E-03    0.82E-03    0.23E-06
   1      7    16.063     1.978    0.22E-03    0.92E-04    0.15E-06
 Optimization of the real space projectors (new method)

 maximal supplied QI-value         = 34.20
 optimisation between [QCUT,QGAM] = [ 16.08, 32.15] = [ 72.37,289.48] Ry 
 Optimized for a Real-space Cutoff    0.71 Angstroem

   l    n(q)    QCUT    max X(q) W(low)/X(q) W(high)/X(q)  e(spline) 
   0      7    16.076   280.207    0.42E-03    0.69E-03    0.60E-07
   0      7    16.076   228.978    0.42E-03    0.69E-03    0.61E-07
   1      6    16.076    86.127    0.11E-03    0.66E-03    0.10E-06
   1      6    16.076    65.368    0.11E-03    0.65E-03    0.10E-06
 Optimization of the real space projectors (new method)

 maximal supplied QI-value         = 16.25
 optimisation between [QCUT,QGAM] = [ 16.09, 32.34] = [ 72.49,292.89] Ry 
 Optimized for a Real-space Cutoff    1.24 Angstroem

   l    n(q)    QCUT    max X(q) W(low)/X(q) W(high)/X(q)  e(spline) 
   0     12    16.089    12.277    0.23E-04    0.54E-05    0.15E-06
   0     12    16.089    11.419    0.26E-04    0.82E-06    0.19E-06
   1     12    16.089     4.010    0.40E-04    0.12E-04    0.58E-06
   1     12    16.089     6.182    0.55E-05    0.28E-04    0.27E-06
   2     11    16.089    47.177    0.17E-03    0.26E-03    0.90E-06
   2     11    16.089    42.437    0.17E-03    0.25E-03    0.88E-06
 Optimization of the real space projectors (new method)

 maximal supplied QI-value         = 34.20
 optimisation between [QCUT,QGAM] = [ 16.08, 32.15] = [ 72.37,289.48] Ry 
 Optimized for a Real-space Cutoff    0.71 Angstroem

   l    n(q)    QCUT    max X(q) W(low)/X(q) W(high)/X(q)  e(spline) 
   0      7    16.076   280.207    0.42E-03    0.69E-03    0.60E-07
   0      7    16.076   228.978    0.42E-03    0.69E-03    0.61E-07
   1      6    16.076    86.127    0.11E-03    0.66E-03    0.10E-06
   1      6    16.076    65.368    0.11E-03    0.65E-03    0.10E-06
 -----------------------------------------------------------------------------
|                                                                             |
|               ----> ADVICE to this user running VASP <----                  |
|                                                                             |
|     You enforced a specific xc type in the INCAR file but a different       |
|     type was found in the POTCAR file.                                      |
|     I HOPE YOU KNOW WHAT YOU ARE DOING!                                     |
|                                                                             |
 -----------------------------------------------------------------------------

  PAW_PBE H_h 06Feb2004                 :
 energy of atom  1       EATOM=  -12.4884
 kinetic energy error for atom=    0.0006 (will be added to EATOM!!)
  PAW_PBE O_h 06Feb2004                 :
 energy of atom  2       EATOM= -432.3788
 kinetic energy error for atom=    0.0171 (will be added to EATOM!!)
  PAW_PBE Ti_sv 26Sep2005               :
 energy of atom  3       EATOM=-1588.0892
 kinetic energy error for atom=    0.0004 (will be added to EATOM!!)
  PAW_PBE O_h 06Feb2004                 :
 energy of atom  4       EATOM= -432.3788
 kinetic energy error for atom=    0.0171 (will be added to EATOM!!)
 
 
 POSCAR:  H  O Ti  O
  positions in direct lattice
  No initial velocities read in
 exchange correlation table for  LEXCH =       43
   RHO(1)=    0.500       N(1)  =     2000
   RHO(2)=  100.500       N(2)  =     4000
 


--------------------------------------------------------------------------------------------------------


 ion  position               nearest neighbor table
   1  0.694  0.516  0.780-   3 0.98
   2  0.689  0.651  0.782-   3 0.98
   3  0.632  0.582  0.782-   2 0.98   1 0.98  51 2.30
   4  0.808  0.916  0.247-  56 1.94  54 1.94  88 1.94  55 1.99  53 1.99
   5  0.592  0.749  0.282-  52 1.94  55 1.94  57 1.94 119 1.94  56 1.99  58 1.99
   6  0.308  0.749  0.247-  60 1.94  58 1.94 124 1.94  59 1.99  52 1.99
   7  0.092  0.916  0.282-  53 1.94  59 1.94  61 1.94  91 1.94  60 1.99  54 1.99
   8  0.945  0.916  0.390-  62 1.92  96 1.93  64 1.94  54 1.98  63 1.98  61 2.00
   9  0.727  0.749  0.421-  57 1.89 127 1.93  63 1.94  65 1.96  66 1.99  64 2.00
  10  0.444  0.749  0.390-  66 1.93 132 1.93  68 1.93  58 1.97  67 1.99  57 2.00
  11  0.226  0.916  0.422-  61 1.90  99 1.94  67 1.94  62 1.97  69 1.97  68 2.01
  12  0.086  0.916  0.532-  70 1.92 104 1.93  72 1.94  71 1.97  69 2.01  62 2.01
  13  0.865  0.749  0.560-  65 1.86 135 1.93  71 1.94  74 1.95  72 2.01  73 2.01
  14  0.584  0.749  0.531- 140 1.93  74 1.93  76 1.93  66 1.97  75 1.98  65 2.02
  15  0.364  0.916  0.562-  69 1.86 107 1.94  75 1.94  70 1.95  77 2.00  76 2.02
  16  0.231  0.915  0.678-  78 1.86  80 1.93 112 1.94  79 2.00  77 2.10  70 2.10  19 2.85
  17  0.000  0.749  0.700-  73 1.78  81 1.84 143 1.97  79 1.98  80 2.07  18 2.86
  18  0.729  0.748  0.674-  81 1.89 147 1.92  83 1.94  82 1.99  74 2.03  73 2.10  17 2.86
  19  0.503  0.917  0.700-  77 1.78  78 1.84  82 1.97 114 1.97  83 2.06  16 2.85
  20  0.808  0.249  0.247-  88 1.94 120 1.94  86 1.94  87 1.99  85 1.99
  21  0.592  0.083  0.282-  84 1.94  87 1.94  89 1.94  55 1.94  88 1.99  90 1.99
  22  0.308  0.083  0.247-  92 1.94  90 1.94  60 1.94  91 1.99  84 1.99
  23  0.092  0.249  0.282-  85 1.94  91 1.94 123 1.94  93 1.94  92 1.99  86 1.99
  24  0.945  0.249  0.390-  94 1.92  96 1.93 128 1.94  86 1.98  95 1.98  93 2.00
  25  0.726  0.083  0.422-  89 1.89  95 1.94  63 1.94  97 1.97  98 1.98  96 2.00
  26  0.444  0.083  0.390-  98 1.92  68 1.93 100 1.93  90 1.98  99 1.99  89 2.00
  27  0.226  0.249  0.422-  93 1.90  99 1.94 131 1.94  94 1.97 101 1.97 100 2.01
  28  0.086  0.249  0.532- 102 1.92 104 1.93 136 1.94 103 1.97 101 2.01  94 2.01
  29  0.864  0.083  0.561-  97 1.86 103 1.94  71 1.94 106 1.94 105 2.01 104 2.03
  30  0.585  0.083  0.532- 106 1.92  76 1.93 108 1.93 107 1.98  98 2.00  97 2.01
  31  0.364  0.249  0.562- 101 1.86 107 1.94 139 1.94 102 1.95 109 2.00 108 2.02
  32  0.231  0.250  0.678- 110 1.86 144 1.93 112 1.94 111 2.00 109 2.10 102 2.10  35 2.85
  33  0.003  0.083  0.700- 105 1.78 113 1.83 111 1.98  79 1.98 112 2.05  34 2.84
  34  0.732  0.083  0.677- 113 1.86  83 1.93 115 1.93 114 2.00 105 2.09 106 2.09  33 2.84
  35  0.503  0.249  0.700- 109 1.78 110 1.84 146 1.97 114 1.97 115 2.06  32 2.85
  36  0.808  0.583  0.247- 120 1.94 118 1.94  56 1.94 119 1.99 117 1.99
  37  0.592  0.416  0.282- 116 1.94  87 1.94 119 1.94 121 1.94 120 1.99 122 1.99
  38  0.308  0.416  0.247-  92 1.94 124 1.94 122 1.94 123 1.99 116 1.99
  39  0.092  0.583  0.282- 117 1.94 123 1.94 125 1.94  59 1.94 124 1.99 118 1.99
  40  0.946  0.583  0.389- 126 1.93  64 1.93 128 1.94 118 1.97 125 1.98 127 2.00
  41  0.727  0.417  0.421- 121 1.89 127 1.93  95 1.94 129 1.96 130 1.99 128 2.00
  42  0.444  0.416  0.389- 130 1.93 132 1.93 100 1.93 122 1.97 131 1.99 121 2.01
  43  0.226  0.583  0.423- 125 1.92 131 1.94  67 1.94 126 1.96 133 1.97 132 2.01
  44  0.089  0.583  0.533- 134 1.92  72 1.93 136 1.93 133 1.98 135 2.00 126 2.01
  45  0.865  0.417  0.560- 129 1.86 135 1.93 103 1.94 138 1.95 136 2.01 137 2.01
  46  0.584  0.416  0.531- 140 1.93 138 1.93 108 1.93 130 1.97 139 1.98 129 2.02
  47  0.366  0.583  0.565- 133 1.92  75 1.94 139 1.94 134 1.94 141 2.00 140 2.03
  48  0.234  0.583  0.678- 142 1.86 144 1.93  80 1.93 143 2.03 141 2.05 134 2.10  51 2.87
  49  1.000  0.417  0.700- 137 1.78 145 1.84 143 1.97 111 1.98 144 2.07  50 2.86
  50  0.729  0.417  0.673- 145 1.90 147 1.92 115 1.94 146 1.99 138 2.03 137 2.10  49 2.86
  51  0.505  0.583  0.707- 142 1.82 141 1.86 146 1.98  82 1.98 147 2.11   3 2.30  48 2.87
  52  0.488  0.749  0.218-   5 1.94   6 1.99
  53  0.988  0.916  0.218-   7 1.94   4 1.99
  54  0.911  0.916  0.312-   4 1.94   8 1.98   7 1.99
  55  0.627  0.916  0.277-   5 1.94  21 1.94   4 1.99
  56  0.772  0.749  0.253-   4 1.94  36 1.94   5 1.99
  57  0.624  0.749  0.359-   9 1.89   5 1.94  10 2.00
  58  0.411  0.749  0.312-   6 1.94  10 1.97   5 1.99
  59  0.127  0.749  0.277-   7 1.94  39 1.94   6 1.99
  60  0.272  0.916  0.253-   6 1.94  22 1.94   7 1.99
  61  0.124  0.916  0.359-  11 1.90   7 1.94   8 2.00
  62  0.049  0.916  0.453-   8 1.92  11 1.97  12 2.01
  63  0.764  0.916  0.417-  25 1.94   9 1.94   8 1.98
  64  0.910  0.749  0.394-  40 1.93   8 1.94   9 2.00
  65  0.764  0.749  0.498-  13 1.86   9 1.96  14 2.02
  66  0.549  0.749  0.453-  10 1.93  14 1.97   9 1.99
  67  0.264  0.749  0.418-  43 1.94  11 1.94  10 1.99
  68  0.409  0.916  0.394-  10 1.93  26 1.93  11 2.01
  69  0.264  0.916  0.499-  15 1.86  11 1.97  12 2.01
  70  0.193  0.916  0.595-  12 1.92  15 1.95  16 2.10
  71  0.904  0.916  0.557-  29 1.94  13 1.94  12 1.97
  72  0.052  0.749  0.535-  44 1.93  12 1.94  13 2.01
  73  0.914  0.751  0.638-  17 1.78  13 2.01  18 2.10
  74  0.694  0.752  0.594-  14 1.93  13 1.95  18 2.03
  75  0.405  0.749  0.560-  47 1.94  15 1.94  14 1.98
  76  0.549  0.916  0.535-  30 1.93  14 1.93  15 2.02
  77  0.413  0.917  0.639-  19 1.78  15 2.00  16 2.10
  78  0.347  0.916  0.735-  19 1.84  16 1.86
  79  0.052  0.916  0.709-  33 1.98  17 1.98  16 2.00
  80  0.195  0.749  0.678-  16 1.93  48 1.93  17 2.07
  81  0.841  0.744  0.734-  17 1.84  18 1.89
  82  0.554  0.751  0.708-  19 1.97  51 1.98  18 1.99
  83  0.695  0.917  0.676-  34 1.93  18 1.94  19 2.06
  84  0.488  0.083  0.218-  21 1.94  22 1.99
  85  0.988  0.249  0.218-  23 1.94  20 1.99
  86  0.911  0.249  0.312-  20 1.94  24 1.98  23 1.99
  87  0.627  0.249  0.277-  21 1.94  37 1.94  20 1.99
  88  0.772  0.083  0.253-  20 1.94   4 1.94  21 1.99
  89  0.624  0.083  0.359-  25 1.89  21 1.94  26 2.00
  90  0.411  0.083  0.312-  22 1.94  26 1.98  21 1.99
  91  0.127  0.083  0.277-  23 1.94   7 1.94  22 1.99
  92  0.272  0.249  0.253-  22 1.94  38 1.94  23 1.99
  93  0.124  0.249  0.359-  27 1.90  23 1.94  24 2.00
  94  0.049  0.249  0.453-  24 1.92  27 1.97  28 2.01
  95  0.764  0.249  0.417-  25 1.94  41 1.94  24 1.98
  96  0.909  0.083  0.394-   8 1.93  24 1.93  25 2.00
  97  0.764  0.083  0.499-  29 1.86  25 1.97  30 2.01
  98  0.549  0.083  0.453-  26 1.92  25 1.98  30 2.00
  99  0.264  0.083  0.418-  27 1.94  11 1.94  26 1.99
 100  0.409  0.249  0.394-  42 1.93  26 1.93  27 2.01
 101  0.264  0.250  0.499-  31 1.86  27 1.97  28 2.01
 102  0.193  0.250  0.595-  28 1.92  31 1.95  32 2.10
 103  0.904  0.249  0.557-  29 1.94  45 1.94  28 1.97
 104  0.051  0.083  0.536-  12 1.93  28 1.93  29 2.03
 105  0.913  0.083  0.639-  33 1.78  29 2.01  34 2.09
 106  0.693  0.083  0.594-  30 1.92  29 1.94  34 2.09
 107  0.404  0.083  0.559-  15 1.94  31 1.94  30 1.98
 108  0.549  0.249  0.535-  30 1.93  46 1.93  31 2.02
 109  0.412  0.248  0.639-  35 1.78  31 2.00  32 2.10
 110  0.347  0.250  0.735-  35 1.84  32 1.86
 111  0.052  0.250  0.709-  33 1.98  49 1.98  32 2.00
 112  0.195  0.083  0.678-  32 1.94  16 1.94  33 2.05
 113  0.846  0.083  0.735-  33 1.83  34 1.86
 114  0.554  0.083  0.709-  35 1.97  19 1.97  34 2.00
 115  0.695  0.249  0.676-  34 1.93  50 1.94  35 2.06
 116  0.488  0.416  0.218-  37 1.94  38 1.99
 117  0.988  0.583  0.218-  39 1.94  36 1.99
 118  0.911  0.583  0.312-  36 1.94  40 1.97  39 1.99
 119  0.627  0.583  0.277-  37 1.94   5 1.94  36 1.99
 120  0.772  0.416  0.253-  20 1.94  36 1.94  37 1.99
 121  0.624  0.416  0.359-  41 1.89  37 1.94  42 2.01
 122  0.411  0.416  0.312-  38 1.94  42 1.97  37 1.99
 123  0.127  0.416  0.277-  23 1.94  39 1.94  38 1.99
 124  0.272  0.583  0.253-  38 1.94   6 1.94  39 1.99
 125  0.124  0.583  0.359-  43 1.92  39 1.94  40 1.98
 126  0.050  0.583  0.454-  40 1.93  43 1.96  44 2.01
 127  0.764  0.583  0.417-  41 1.93   9 1.93  40 2.00
 128  0.910  0.416  0.394-  24 1.94  40 1.94  41 2.00
 129  0.764  0.417  0.498-  45 1.86  41 1.96  46 2.02
 130  0.549  0.417  0.453-  42 1.93  46 1.97  41 1.99
 131  0.264  0.416  0.418-  43 1.94  27 1.94  42 1.99
 132  0.409  0.583  0.394-  42 1.93  10 1.93  43 2.01
 133  0.266  0.583  0.501-  47 1.92  43 1.97  44 1.98
 134  0.193  0.583  0.596-  44 1.92  47 1.94  48 2.10
 135  0.904  0.583  0.558-  45 1.93  13 1.93  44 2.00
 136  0.052  0.416  0.535-  44 1.93  28 1.94  45 2.01
 137  0.914  0.415  0.638-  49 1.78  45 2.01  50 2.10
 138  0.694  0.414  0.594-  46 1.93  45 1.95  50 2.03
 139  0.405  0.416  0.560-  47 1.94  31 1.94  46 1.98
 140  0.551  0.583  0.536-  46 1.93  14 1.93  47 2.03
 141  0.413  0.583  0.642-  51 1.86  47 2.00  48 2.05
 142  0.345  0.583  0.738-  51 1.82  48 1.86
 143  0.052  0.583  0.709-  49 1.97  17 1.97  48 2.03
 144  0.195  0.417  0.678-  32 1.93  48 1.93  49 2.07
 145  0.841  0.422  0.734-  49 1.84  50 1.90
 146  0.554  0.415  0.708-  35 1.97  51 1.98  50 1.99
 147  0.693  0.583  0.672-  18 1.92  50 1.92  51 2.11
 

IMPORTANT INFORMATION: All symmetrisations will be switched off!
NOSYMM: (Re-)initialisation of all symmetry stuff for point group C_1.


----------------------------------------------------------------------------------------

                                     Primitive cell                                     

  volume of cell :    2920.0096

  direct lattice vectors                    reciprocal lattice vectors
    10.273755933  0.000000000  0.000000000     0.097335386 -0.000000000  0.000000000
     0.000000000 11.368810418  0.000000000     0.000000000  0.087959950  0.000000000
     0.000000000  0.000000000 25.000000000     0.000000000  0.000000000  0.040000000

  length of vectors
    10.273755933 11.368810418 25.000000000     0.097335386  0.087959950  0.040000000

  position of ions in fractional coordinates (direct lattice)
     0.693630997  0.516077859  0.779894165
     0.688973259  0.651193176  0.781612367
     0.632197141  0.581955411  0.782275116
     0.807824645  0.915977663  0.247143925
     0.591839534  0.749310996  0.282367682
     0.307824645  0.749310996  0.247143925
     0.091839534  0.915977663  0.282367682
     0.944954220  0.916237323  0.389700498
     0.726802437  0.749004988  0.421475092
     0.444172613  0.749180500  0.389505817
     0.225535096  0.915999740  0.422103230
     0.086239035  0.916480641  0.532342036
     0.865389355  0.749086479  0.560081940
     0.584381983  0.749391056  0.531007772
     0.364022870  0.916207900  0.561736432
     0.231111939  0.915490957  0.677904271
     0.000077673  0.748570951  0.699690556
     0.728786461  0.748487298  0.673604429
     0.503369768  0.917020402  0.699919933
     0.807824645  0.249310996  0.247143925
     0.591839534  0.082644329  0.282367682
     0.307824645  0.082644329  0.247143925
     0.091839534  0.249310996  0.282367682
     0.944925394  0.249278629  0.389698373
     0.725984638  0.082750601  0.421695174
     0.444360078  0.082706518  0.389680038
     0.225546304  0.249416631  0.422089671
     0.086213114  0.249263187  0.532326041
     0.863922473  0.082863653  0.560827382
     0.585055510  0.082809817  0.531711629
     0.363997622  0.249399877  0.561731149
     0.231092860  0.250321606  0.677896287
     0.002739359  0.082926030  0.699693602
     0.732066551  0.082822047  0.676640387
     0.503333687  0.248570229  0.699899075
     0.807824645  0.582644329  0.247143925
     0.591839534  0.415977663  0.282367682
     0.307824645  0.415977663  0.247143925
     0.091839534  0.582644329  0.282367682
     0.946443895  0.582772630  0.389463535
     0.726838877  0.416508891  0.421465408
     0.444150116  0.416244666  0.389496715
     0.225945842  0.582709498  0.423263521
     0.089188107  0.582907753  0.532563183
     0.865477084  0.416661179  0.560046594
     0.584313763  0.416223785  0.530970212
     0.366097642  0.582819218  0.565067907
     0.234474013  0.582872289  0.678432559
     0.999922327  0.417256646  0.699723959
     0.728630038  0.417195281  0.673443408
     0.505186475  0.582794753  0.706663688
     0.488216390  0.749310996  0.217724884
     0.988216390  0.915977663  0.217724884
     0.911447789  0.915977663  0.311786723
     0.627432900  0.915977663  0.276562967
     0.772231279  0.749310996  0.252948640
     0.624275946  0.749310996  0.358619910
     0.411447789  0.749310996  0.311786723
     0.127432900  0.749310996  0.276562967
     0.272231279  0.915977663  0.252948640
     0.124275946  0.915977663  0.358619910
     0.049468933  0.916260703  0.453460822
     0.763950733  0.916030408  0.417336416
     0.909535379  0.749312941  0.394179479
     0.764140037  0.748811067  0.498390572
     0.549023208  0.748856751  0.453357495
     0.263704506  0.749232815  0.417957722
     0.408563616  0.915927448  0.394123449
     0.264274742  0.915661341  0.499427688
     0.192690871  0.915874176  0.595419365
     0.904047103  0.916350058  0.557432534
     0.051527215  0.749300361  0.535351578
     0.913626303  0.750706895  0.638101501
     0.694032656  0.752121994  0.593716378
     0.404714145  0.749278177  0.559574738
     0.549158381  0.916160827  0.534859343
     0.412515202  0.917355671  0.639331772
     0.346545241  0.915783873  0.735143560
     0.051609152  0.915528315  0.709018415
     0.194728666  0.749093520  0.678208266
     0.841162302  0.743938358  0.733638517
     0.554361834  0.751077361  0.708341199
     0.694970578  0.916580254  0.675762955
     0.488216390  0.082644329  0.217724884
     0.988216390  0.249310996  0.217724884
     0.911447789  0.249310996  0.311786723
     0.627432900  0.249310996  0.276562967
     0.772231279  0.082644329  0.252948640
     0.624275946  0.082644329  0.358619910
     0.411447789  0.082644329  0.311786723
     0.127432900  0.082644329  0.276562967
     0.272231279  0.249310996  0.252948640
     0.124275946  0.249310996  0.358619910
     0.049462550  0.249337191  0.453454507
     0.763952750  0.249456419  0.417334009
     0.909206026  0.082738366  0.394123859
     0.763699781  0.082811586  0.498765413
     0.549094390  0.082749718  0.453259272
     0.263700939  0.082712238  0.417907121
     0.408561156  0.249487637  0.394116757
     0.264283030  0.249884339  0.499414652
     0.192666648  0.249889931  0.595405894
     0.904035206  0.249371537  0.557400334
     0.051424547  0.082844277  0.535510710
     0.913422599  0.082939613  0.638639259
     0.693157806  0.082857627  0.594385550
     0.403656676  0.082803038  0.558631779
     0.549112249  0.249455708  0.534836818
     0.412464598  0.248064073  0.639319834
     0.346550917  0.250064283  0.735129553
     0.051550183  0.250323555  0.709061297
     0.194696062  0.082920034  0.677912036
     0.845653254  0.082820180  0.734539528
     0.554225527  0.082803987  0.709486515
     0.695039428  0.249080842  0.675807529
     0.488216390  0.415977663  0.217724884
     0.988216390  0.582644329  0.217724884
     0.911447789  0.582644329  0.311786723
     0.627432900  0.582644329  0.276562967
     0.772231279  0.415977663  0.252948640
     0.624275946  0.415977663  0.358619910
     0.411447789  0.415977663  0.311786723
     0.127432900  0.415977663  0.276562967
     0.272231279  0.582644329  0.252948640
     0.124275946  0.582644329  0.358619910
     0.050141462  0.582809559  0.453723738
     0.764068920  0.582746868  0.417044593
     0.909524966  0.416169939  0.394182358
     0.764133709  0.416834334  0.498383972
     0.549004994  0.416666764  0.453356636
     0.263710135  0.416191296  0.417955954
     0.408644112  0.582706739  0.394140654
     0.265547805  0.582756753  0.500552647
     0.193237491  0.582898258  0.596292710
     0.904277477  0.582848713  0.558017826
     0.051515409  0.416422472  0.535346016
     0.913600776  0.414924196  0.638096382
     0.694042113  0.413533603  0.593693788
     0.404733827  0.416334483  0.559632878
     0.550721813  0.582800272  0.536233450
     0.413406267  0.582971149  0.642468108
     0.344784089  0.582825249  0.737633058
     0.051512683  0.582887381  0.708830488
     0.194629940  0.416690240  0.678168282
     0.840878147  0.422299945  0.733626345
     0.554181345  0.414591759  0.708038844
     0.692587314  0.582890027  0.671726326

  ion indices of the primitive-cell ions
   primitive index   ion index
                 1           1
                 2           2
                 3           3
                 4           4
                 5           5
                 6           6
                 7           7
                 8           8
                 9           9
                10          10
                11          11
                12          12
                13          13
                14          14
                15          15
                16          16
                17          17
                18          18
                19          19
                20          20
                21          21
                22          22
                23          23
                24          24
                25          25
                26          26
                27          27
                28          28
                29          29
                30          30
                31          31
                32          32
                33          33
                34          34
                35          35
                36          36
                37          37
                38          38
                39          39
                40          40
                41          41
                42          42
                43          43
                44          44
                45          45
                46          46
                47          47
                48          48
                49          49
                50          50
                51          51
                52          52
                53          53
                54          54
                55          55
                56          56
                57          57
                58          58
                59          59
                60          60
                61          61
                62          62
                63          63
                64          64
                65          65
                66          66
                67          67
                68          68
                69          69
                70          70
                71          71
                72          72
                73          73
                74          74
                75          75
                76          76
                77          77
                78          78
                79          79
                80          80
                81          81
                82          82
                83          83
                84          84
                85          85
                86          86
                87          87
                88          88
                89          89
                90          90
                91          91
                92          92
                93          93
                94          94
                95          95
                96          96
                97          97
                98          98
                99          99
               100         100
               101         101
               102         102
               103         103
               104         104
               105         105
               106         106
               107         107
               108         108
               109         109
               110         110
               111         111
               112         112
               113         113
               114         114
               115         115
               116         116
               117         117
               118         118
               119         119
               120         120
               121         121
               122         122
               123         123
               124         124
               125         125
               126         126
               127         127
               128         128
               129         129
               130         130
               131         131
               132         132
               133         133
               134         134
               135         135
               136         136
               137         137
               138         138
               139         139
               140         140
               141         141
               142         142
               143         143
               144         144
               145         145
               146         146
               147         147

----------------------------------------------------------------------------------------

 
 
 KPOINTS: pymatgen v2020.8.13 with grid density = 

Automatic generation of k-mesh.
 Grid dimensions read from file:
 generate k-points for:    3    3    1

 Generating k-lattice:

  Cartesian coordinates                     Fractional coordinates (reciprocal lattice)
     0.032445129 -0.000000000  0.000000000     0.333333333  0.000000000  0.000000000
     0.000000000  0.029319983  0.000000000     0.000000000  0.333333333  0.000000000
     0.000000000  0.000000000  0.040000000     0.000000000  0.000000000  1.000000000

  Length of vectors
     0.032445129  0.029319983  0.040000000

  Shift w.r.t. Gamma in fractional coordinates (k-lattice)
     0.000000000  0.000000000  0.000000000

 
 Subroutine IBZKPT returns following result:
 ===========================================
 
 Found      5 irreducible k-points:
 
 Following reciprocal coordinates:
            Coordinates               Weight
  0.000000  0.000000  0.000000      1.000000
  0.333333  0.000000  0.000000      2.000000
  0.000000  0.333333  0.000000      2.000000
  0.333333  0.333333  0.000000      2.000000
  0.333333 -0.333333  0.000000      2.000000
 
 Following cartesian coordinates:
            Coordinates               Weight
  0.000000  0.000000  0.000000      1.000000
  0.032445  0.000000  0.000000      2.000000
  0.000000  0.029320  0.000000      2.000000
  0.032445  0.029320  0.000000      2.000000
  0.032445 -0.029320  0.000000      2.000000
 


--------------------------------------------------------------------------------------------------------




 Dimension of arrays:
   k-points           NKPTS =      5   k-points in BZ     NKDIM =      5   number of bands    NBANDS=    696
   number of dos      NEDOS =    301   number of ions     NIONS =    147
   non local maximal  LDIM  =      6   non local SUM 2l+1 LMDIM =     18
   total plane-waves  NPLWV = ******
   max r-space proj   IRMAX =   3955   max aug-charges    IRDMAX=  18961
   dimension x,y,z NGX =    80 NGY =   90 NGZ =  196
   dimension x,y,z NGXF=   160 NGYF=  180 NGZF=  392
   support grid    NGXF=   160 NGYF=  180 NGZF=  392
   ions per type =               2   1  48  96
   NGX,Y,Z   is equivalent  to a cutoff of  12.95, 13.16, 13.03 a.u.
   NGXF,Y,Z  is equivalent  to a cutoff of  25.89, 26.32, 26.07 a.u.

 SYSTEM =  Oxide-Surface                           
 POSCAR =   H  O Ti  O                             

    10.273755933 11.368810418 25.000000000     0.097335386  0.087959950  0.040000000


 
 old parameters found on file WAVECAR:
  energy-cutoff  :     1000.00
  volume of cell :     2920.01
      direct lattice vectors                 reciprocal lattice vectors
    10.273755933  0.000000000  0.000000000     0.097335386 -0.000000000  0.000000000
     0.000000000 11.368810418  0.000000000     0.000000000  0.087959950  0.000000000
     0.000000000  0.000000000 25.000000000     0.000000000  0.000000000  0.040000000

  length of vectors

 
 k-points in units of 2pi/SCALE and weight: pymatgen v2020.8.13 with grid density = 
   0.00000000  0.00000000  0.00000000       0.111
   0.03244513  0.00000000  0.00000000       0.222
   0.00000000  0.02931998  0.00000000       0.222
   0.03244513  0.02931998  0.00000000       0.222
   0.03244513 -0.02931998  0.00000000       0.222
 
 k-points in reciprocal lattice and weights: pymatgen v2020.8.13 with grid density = 
   0.00000000  0.00000000  0.00000000       0.111
   0.33333333  0.00000000  0.00000000       0.222
   0.00000000  0.33333333  0.00000000       0.222
   0.33333333  0.33333333  0.00000000       0.222
   0.33333333 -0.33333333  0.00000000       0.222
 
 position of ions in fractional coordinates (direct lattice) 
   0.69363100  0.51607786  0.77989417
   0.68897326  0.65119318  0.78161237
   0.63219714  0.58195541  0.78227512
   0.80782464  0.91597766  0.24714393
   0.59183953  0.74931100  0.28236768
   0.30782464  0.74931100  0.24714393
   0.09183953  0.91597766  0.28236768
   0.94495422  0.91623732  0.38970050
   0.72680244  0.74900499  0.42147509
   0.44417261  0.74918050  0.38950582
   0.22553510  0.91599974  0.42210323
   0.08623904  0.91648064  0.53234204
   0.86538936  0.74908648  0.56008194
   0.58438198  0.74939106  0.53100777
   0.36402287  0.91620790  0.56173643
   0.23111194  0.91549096  0.67790427
   0.00007767  0.74857095  0.69969056
   0.72878646  0.74848730  0.67360443
   0.50336977  0.91702040  0.69991993
   0.80782464  0.24931100  0.24714393
   0.59183953  0.08264433  0.28236768
   0.30782464  0.08264433  0.24714393
   0.09183953  0.24931100  0.28236768
   0.94492539  0.24927863  0.38969837
   0.72598464  0.08275060  0.42169517
   0.44436008  0.08270652  0.38968004
   0.22554630  0.24941663  0.42208967
   0.08621311  0.24926319  0.53232604
   0.86392247  0.08286365  0.56082738
   0.58505551  0.08280982  0.53171163
   0.36399762  0.24939988  0.56173115
   0.23109286  0.25032161  0.67789629
   0.00273936  0.08292603  0.69969360
   0.73206655  0.08282205  0.67664039
   0.50333369  0.24857023  0.69989908
   0.80782464  0.58264433  0.24714393
   0.59183953  0.41597766  0.28236768
   0.30782464  0.41597766  0.24714393
   0.09183953  0.58264433  0.28236768
   0.94644389  0.58277263  0.38946354
   0.72683888  0.41650889  0.42146541
   0.44415012  0.41624467  0.38949672
   0.22594584  0.58270950  0.42326352
   0.08918811  0.58290775  0.53256318
   0.86547708  0.41666118  0.56004659
   0.58431376  0.41622379  0.53097021
   0.36609764  0.58281922  0.56506791
   0.23447401  0.58287229  0.67843256
   0.99992233  0.41725665  0.69972396
   0.72863004  0.41719528  0.67344341
   0.50518648  0.58279475  0.70666369
   0.48821639  0.74931100  0.21772488
   0.98821639  0.91597766  0.21772488
   0.91144779  0.91597766  0.31178672
   0.62743290  0.91597766  0.27656297
   0.77223128  0.74931100  0.25294864
   0.62427595  0.74931100  0.35861991
   0.41144779  0.74931100  0.31178672
   0.12743290  0.74931100  0.27656297
   0.27223128  0.91597766  0.25294864
   0.12427595  0.91597766  0.35861991
   0.04946893  0.91626070  0.45346082
   0.76395073  0.91603041  0.41733642
   0.90953538  0.74931294  0.39417948
   0.76414004  0.74881107  0.49839057
   0.54902321  0.74885675  0.45335749
   0.26370451  0.74923282  0.41795772
   0.40856362  0.91592745  0.39412345
   0.26427474  0.91566134  0.49942769
   0.19269087  0.91587418  0.59541936
   0.90404710  0.91635006  0.55743253
   0.05152722  0.74930036  0.53535158
   0.91362630  0.75070689  0.63810150
   0.69403266  0.75212199  0.59371638
   0.40471415  0.74927818  0.55957474
   0.54915838  0.91616083  0.53485934
   0.41251520  0.91735567  0.63933177
   0.34654524  0.91578387  0.73514356
   0.05160915  0.91552831  0.70901842
   0.19472867  0.74909352  0.67820827
   0.84116230  0.74393836  0.73363852
   0.55436183  0.75107736  0.70834120
   0.69497058  0.91658025  0.67576295
   0.48821639  0.08264433  0.21772488
   0.98821639  0.24931100  0.21772488
   0.91144779  0.24931100  0.31178672
   0.62743290  0.24931100  0.27656297
   0.77223128  0.08264433  0.25294864
   0.62427595  0.08264433  0.35861991
   0.41144779  0.08264433  0.31178672
   0.12743290  0.08264433  0.27656297
   0.27223128  0.24931100  0.25294864
   0.12427595  0.24931100  0.35861991
   0.04946255  0.24933719  0.45345451
   0.76395275  0.24945642  0.41733401
   0.90920603  0.08273837  0.39412386
   0.76369978  0.08281159  0.49876541
   0.54909439  0.08274972  0.45325927
   0.26370094  0.08271224  0.41790712
   0.40856116  0.24948764  0.39411676
   0.26428303  0.24988434  0.49941465
   0.19266665  0.24988993  0.59540589
   0.90403521  0.24937154  0.55740033
   0.05142455  0.08284428  0.53551071
   0.91342260  0.08293961  0.63863926
   0.69315781  0.08285763  0.59438555
   0.40365668  0.08280304  0.55863178
   0.54911225  0.24945571  0.53483682
   0.41246460  0.24806407  0.63931983
   0.34655092  0.25006428  0.73512955
   0.05155018  0.25032356  0.70906130
   0.19469606  0.08292003  0.67791204
   0.84565325  0.08282018  0.73453953
   0.55422553  0.08280399  0.70948651
   0.69503943  0.24908084  0.67580753
   0.48821639  0.41597766  0.21772488
   0.98821639  0.58264433  0.21772488
   0.91144779  0.58264433  0.31178672
   0.62743290  0.58264433  0.27656297
   0.77223128  0.41597766  0.25294864
   0.62427595  0.41597766  0.35861991
   0.41144779  0.41597766  0.31178672
   0.12743290  0.41597766  0.27656297
   0.27223128  0.58264433  0.25294864
   0.12427595  0.58264433  0.35861991
   0.05014146  0.58280956  0.45372374
   0.76406892  0.58274687  0.41704459
   0.90952497  0.41616994  0.39418236
   0.76413371  0.41683433  0.49838397
   0.54900499  0.41666676  0.45335664
   0.26371014  0.41619130  0.41795595
   0.40864411  0.58270674  0.39414065
   0.26554781  0.58275675  0.50055265
   0.19323749  0.58289826  0.59629271
   0.90427748  0.58284871  0.55801783
   0.05151541  0.41642247  0.53534602
   0.91360078  0.41492420  0.63809638
   0.69404211  0.41353360  0.59369379
   0.40473383  0.41633448  0.55963288
   0.55072181  0.58280027  0.53623345
   0.41340627  0.58297115  0.64246811
   0.34478409  0.58282525  0.73763306
   0.05151268  0.58288738  0.70883049
   0.19462994  0.41669024  0.67816828
   0.84087815  0.42229995  0.73362635
   0.55418134  0.41459176  0.70803884
   0.69258731  0.58289003  0.67172633
 
 position of ions in cartesian coordinates  (Angst):
   7.12619557  5.86719134 19.49735413
   7.07834311  7.40329176 19.54030916
   6.49503912  6.61614074 19.55687791
   8.29939324 10.41357639  6.17859813
   6.08041492  8.51877466  7.05919205
   3.16251527  8.51877466  6.17859813
   0.94353696 10.41357639  7.05919205
   9.70822902 10.41652843  9.74251246
   7.46699085  8.51529571 10.53687730
   4.56332102  8.51729107  9.73764542
   2.31709253 10.41382739 10.55258074
   0.88599880 10.41929466 13.30855091
   8.89079902  8.51622217 14.00204851
   6.00379786  8.51968484 13.27519430
   3.73988212 10.41619392 14.04341080
   2.37438765 10.40804313 16.94760677
   0.00079799  8.51036122 17.49226389
   7.48737423  8.50941019 16.84011072
   5.17149814 10.42543109 17.49799833
   8.29939324  2.83436945  6.17859813
   6.08041492  0.93956771  7.05919205
   3.16251527  0.93956771  6.17859813
   0.94353696  2.83436945  7.05919205
   9.70793287  2.83400147  9.74245933
   7.45858898  0.94077590 10.54237934
   4.56524699  0.94027473  9.74200095
   2.31720768  2.83557040 10.55224177
   0.88573249  2.83382592 13.30815102
   8.87572863  0.94206116 14.02068456
   6.01071752  0.94144911 13.29279072
   3.73962273  2.83537991 14.04327873
   2.37419164  2.84585888 16.94740717
   0.02814351  0.94277031 17.49234006
   7.52107307  0.94158815 16.91600967
   5.17112745  2.82594781 17.49747688
   8.29939324  6.62397292  6.17859813
   6.08041492  4.72917119  7.05919205
   3.16251527  4.72917119  6.17859813
   0.94353696  6.62397292  7.05919205
   9.72353358  6.62543154  9.73658838
   7.46736523  4.73521062 10.53663520
   4.56308989  4.73220670  9.73741788
   2.32131243  6.62471382 10.58158802
   0.91629684  6.62696773 13.31407958
   8.89170032  4.73694196 14.00116486
   6.00309699  4.73196931 13.27425530
   3.76119783  6.62596120 14.12669768
   2.40892878  6.62656455 16.96081398
  10.27295794  4.74371171 17.49309898
   7.48576717  4.74301405 16.83608520
   5.19016255  6.62568306 17.66659219
   5.01581603  8.51877466  5.44312209
  10.15269400 10.41357639  5.44312209
   9.36399213 10.41357639  7.79466808
   6.44609248 10.41357639  6.91407417
   7.93371568  8.51877466  6.32371601
   6.41365871  8.51877466  8.96549776
   4.22711416  8.51877466  7.79466808
   1.30921451  8.51877466  6.91407417
   2.79683772 10.41357639  6.32371601
   1.27678074 10.41357639  8.96549776
   0.50823175 10.41679423 11.33652054
   7.84864337 10.41417604 10.43341041
   9.34434449  8.51879677  9.85448697
   7.85058824  8.51309106 12.45976430
   5.64053044  8.51361043 11.33393737
   2.70923573  8.51788583 10.44894305
   4.19748287 10.41300552  9.85308623
   2.71509420 10.40998019 12.48569219
   1.97965898 10.41239987 14.88548411
   9.28795929 10.41781008 13.93581335
   0.52937803  8.51865375 13.38378944
   9.38637365  8.53464436 15.95253752
   7.13032212  8.55073236 14.84290944
   4.15793435  8.51840154 13.98936844
   5.64191917 10.41565875 13.37148358
   4.23808050 10.42924270 15.98329429
   3.56032122 10.41137323 18.37858900
   0.53021983 10.40846784 17.72546039
   2.00059479  8.51630222 16.95520664
   8.64189619  8.45769415 18.34096293
   5.69537818  8.53885613 17.70852998
   7.13995809 10.42042714 16.89407386
   5.01581603  0.93956771  5.44312209
  10.15269400  2.83436945  5.44312209
   9.36399213  2.83436945  7.79466808
   6.44609248  2.83436945  6.91407417
   7.93371568  0.93956771  6.32371601
   6.41365871  0.93956771  8.96549776
   4.22711416  0.93956771  7.79466808
   1.30921451  0.93956771  6.91407417
   2.79683772  2.83436945  6.32371601
   1.27678074  2.83436945  8.96549776
   0.50816617  2.83466726 11.33636267
   7.84866409  2.83602274 10.43335023
   9.34096080  0.94063680  9.85309647
   7.84606516  0.94146923 12.46913532
   5.64126175  0.94076586 11.33148181
   2.70919909  0.94033975 10.44767804
   4.19745760  2.83637764  9.85291893
   2.71517935  2.84088768 12.48536630
   1.97941012  2.84095125 14.88514736
   9.28783706  2.83505773 13.93500834
   0.52832325  0.94184088 13.38776775
   9.38428085  0.94292474 15.96598148
   7.12133412  0.94199265 14.85963876
   4.14707017  0.94137204 13.96579448
   5.64144522  2.83601466 13.37092045
   4.23756061  2.82019341 15.98299584
   3.56037954  2.84293343 18.37823881
   0.52961399  2.84588104 17.72653243
   2.00025983  0.94270215 16.94780091
   8.68803513  0.94156692 18.36348820
   5.69397780  0.94138283 17.73716287
   7.14066544  2.83175287 16.89518822
   5.01581603  4.72917119  5.44312209
  10.15269400  6.62397292  5.44312209
   9.36399213  6.62397292  7.79466808
   6.44609248  6.62397292  6.91407417
   7.93371568  4.72917119  6.32371601
   6.41365871  4.72917119  8.96549776
   4.22711416  4.72917119  7.79466808
   1.30921451  4.72917119  6.91407417
   2.79683772  6.62397292  6.32371601
   1.27678074  6.62397292  8.96549776
   0.51514115  6.62585139 11.34309346
   7.84985760  6.62513866 10.42611481
   9.34423751  4.73135713  9.85455895
   7.85052322  4.73891052 12.45959930
   5.64034332  4.73700545 11.33391589
   2.70929357  4.73159995 10.44889884
   4.19830987  6.62468245  9.85351636
   2.72817334  6.62525104 12.51381617
   1.98527481  6.62685979 14.90731774
   9.29032609  6.62629652 13.95044566
   0.52925674  4.73422814 13.38365040
   9.38611139  4.71719452 15.95240955
   7.13041928  4.70138513 14.84234470
   4.15813655  4.73322781 13.99082194
   5.65798149  6.62574580 13.40583624
   4.24723509  6.62768847 16.06170271
   3.54222758  6.62602976 18.44082646
   0.52922873  6.62673613 17.72076221
   1.99958050  4.73727234 16.95420704
   8.63897685  4.80104802 18.34065864
   5.69352388  4.71341511 17.70097109
   7.11547302  6.62676621 16.79315815
 


--------------------------------------------------------------------------------------------------------

--------------------------------------- Iteration      FINAL  ---------------------------------------


--------------------OUTCAR has been truncated-------------------------


--------------------OUTCAR has been truncated-------------------------


--------------------OUTCAR has been truncated-------------------------


--------------------OUTCAR has been truncated-------------------------


--------------------OUTCAR has been truncated-------------------------


--------------------OUTCAR has been truncated-------------------------


--------------------OUTCAR has been truncated-------------------------


--------------------OUTCAR has been truncated-------------------------


--------------------OUTCAR has been truncated-------------------------


--------------------OUTCAR has been truncated-------------------------


    MIXING:  cpu time      0.0638: real time      0.0640
    OFIELD:  cpu time      0.0000: real time      0.0000

  FORCE on cell =-STRESS in cart. coord.  units (eV):
  Direction    XX          YY          ZZ          XY          YZ          ZX
  --------------------------------------------------------------------------------------
  Alpha Z  2181.25877  2181.25877  2181.25877
  Ewald  398565.28611389906.82670************    -4.48700    10.64331 -2372.74549
  Hartree427555.92101421927.27808************    -2.20210     4.63271 -1671.62880
  E(xc)   -6030.49564 -6031.96599 -6033.09684    -0.01042     0.02439     0.37964
  Local  ************************829864.29095     6.31402   -14.20120  4049.82858
  n-local -2973.67792 -2921.22356 -2913.34714    -0.05115     0.01936   -22.19572
  augment  2943.20623  2937.05667  2918.42402    -0.00291     0.02556     6.88020
  Kinetic 25934.14846 25945.44954 25968.59906     0.44002    -1.28486     2.44022
  Fock        0.00000     0.00000     0.00000     0.00000     0.00000     0.00000
  -------------------------------------------------------------------------------------
  Total     -39.93161    -5.45878    -6.27131     0.00045    -0.14073    -7.04138
  in kB     -21.91004    -2.99517    -3.44100     0.00025    -0.07722    -3.86353
  external pressure =       -9.45 kB  Pullay stress =        0.00 kB


 VOLUME and BASIS-vectors are now :
 -----------------------------------------------------------------------------
  energy-cutoff  :     1000.00
  volume of cell :     2920.01
      direct lattice vectors                 reciprocal lattice vectors
    10.273755933  0.000000000  0.000000000     0.097335386 -0.000000000  0.000000000
     0.000000000 11.368810418  0.000000000     0.000000000  0.087959950  0.000000000
     0.000000000  0.000000000 25.000000000     0.000000000  0.000000000  0.040000000

  length of vectors
    10.273755933 11.368810418 25.000000000     0.097335386  0.087959950  0.040000000


 FORCES acting on ions
    electron-ion (+dipol)            ewald-force                    non-local-force                 convergence-correction
 -----------------------------------------------------------------------------------------------
   -.539E+02 0.634E+02 -.335E+03   0.591E+02 -.699E+02 0.334E+03   -.515E+01 0.634E+01 0.433E+00   -.296E-03 0.543E-03 -.304E-02
   -.502E+02 -.674E+02 -.337E+03   0.550E+02 0.742E+02 0.337E+03   -.478E+01 -.669E+01 0.757E-01   -.273E-03 -.560E-03 -.309E-02
   0.234E+01 0.232E+01 -.204E+04   -.446E+02 -.410E+01 0.205E+04   0.420E+02 0.178E+01 -.105E+02   0.758E-03 0.930E-04 -.174E-01
   0.138E+01 -.324E+00 0.388E+04   0.472E+01 0.328E+00 -.388E+04   -.225E+01 0.155E-01 -.485E+01   -.452E-03 0.480E-04 0.152E-01
   0.929E+01 -.424E+00 0.319E+04   -.110E+02 0.428E+00 -.319E+04   0.224E-01 -.367E-03 0.274E+00   0.547E-03 0.684E-04 0.476E-02
   0.156E+01 -.225E-01 0.388E+04   0.450E+01 0.213E-01 -.388E+04   -.224E+01 0.174E-01 -.484E+01   -.342E-03 0.420E-04 0.152E-01
   0.701E+01 -.907E-02 0.319E+04   -.874E+01 0.294E-02 -.319E+04   0.394E-01 0.322E-02 0.268E+00   0.378E-03 0.419E-04 0.482E-02
   0.263E+00 -.327E+00 0.145E+04   -.395E+00 0.344E+00 -.145E+04   0.136E+00 -.509E-02 -.191E+00   -.326E-03 0.574E-05 -.709E-02
   0.224E+01 -.269E+01 0.922E+03   -.234E+01 0.263E+01 -.922E+03   0.982E-01 0.493E-01 0.146E+00   0.366E-04 0.281E-05 -.569E-02
   0.298E+01 -.418E+00 0.145E+04   -.312E+01 0.394E+00 -.145E+04   0.136E+00 0.486E-01 -.202E+00   -.217E-03 0.421E-04 -.699E-02
   -.830E+01 0.389E+00 0.907E+03   0.807E+01 -.390E+00 -.907E+03   0.248E+00 -.894E-02 0.104E+00   0.708E-04 0.108E-04 -.565E-02
   -.662E+01 -.293E+01 -.906E+03   0.631E+01 0.296E+01 0.907E+03   0.331E+00 -.419E-01 -.220E+00   0.412E-03 -.178E-03 0.101E-02
   -.171E+02 -.610E+01 -.135E+04   0.166E+02 0.609E+01 0.135E+04   0.476E+00 0.210E-01 0.315E+00   -.306E-03 -.297E-03 0.169E-02
   0.445E+01 -.267E+01 -.864E+03   -.480E+01 0.266E+01 0.864E+03   0.347E+00 0.952E-02 -.111E+00   0.183E-03 -.120E-03 0.108E-02
   -.166E+01 -.240E+01 -.139E+04   0.126E+01 0.244E+01 0.139E+04   0.448E+00 -.386E-01 0.217E+00   -.318E-03 -.158E-03 0.158E-02
   0.366E+02 -.153E+02 -.321E+04   -.375E+02 0.152E+02 0.321E+04   0.908E+00 0.598E-01 -.985E+00   -.258E-02 -.266E-03 -.111E-01
   -.111E+03 -.342E+02 -.367E+04   0.109E+03 0.339E+02 0.366E+04   0.186E+01 0.228E+00 0.211E+01   0.123E-02 -.124E-02 -.145E-01
   -.118E+02 -.662E+02 -.309E+04   0.108E+02 0.661E+02 0.309E+04   0.980E+00 0.110E+00 -.636E+00   -.194E-02 -.153E-02 -.738E-02
   -.718E+02 -.421E+02 -.367E+04   0.698E+02 0.421E+02 0.366E+04   0.191E+01 0.198E-01 0.208E+01   0.324E-02 -.310E-03 -.154E-01
   0.138E+01 0.338E+00 0.388E+04   0.472E+01 -.342E+00 -.388E+04   -.225E+01 0.181E-01 -.485E+01   -.647E-03 -.553E-04 0.152E-01
   0.920E+01 0.300E-01 0.319E+04   -.109E+02 -.309E-01 -.319E+04   0.350E-01 0.146E-02 0.265E+00   0.568E-03 0.484E-04 0.480E-02
   0.134E+01 0.145E-01 0.388E+04   0.475E+01 -.149E-01 -.388E+04   -.225E+01 0.169E-01 -.485E+01   -.383E-03 -.301E-04 0.152E-01
   0.702E+01 0.632E-01 0.319E+04   -.875E+01 -.592E-01 -.319E+04   0.393E-01 0.611E-04 0.268E+00   0.412E-03 -.431E-04 0.497E-02
   0.103E+00 0.181E+00 0.145E+04   -.232E+00 -.203E+00 -.145E+04   0.139E+00 0.170E-01 -.198E+00   -.337E-03 -.821E-05 -.709E-02
   -.231E+01 0.156E-01 0.915E+03   0.211E+01 -.186E-01 -.915E+03   0.208E+00 -.221E-02 0.134E+00   0.123E-04 -.117E-04 -.579E-02
   0.299E+01 -.370E-01 0.145E+04   -.312E+01 0.342E-01 -.145E+04   0.126E+00 0.153E-01 -.226E+00   -.232E-03 0.110E-04 -.709E-02
   -.819E+01 -.190E+00 0.907E+03   0.797E+01 0.190E+00 -.908E+03   0.245E+00 -.118E-01 0.105E+00   0.103E-03 -.154E-04 -.565E-02
   -.688E+01 0.283E+01 -.906E+03   0.657E+01 -.286E+01 0.906E+03   0.324E+00 0.401E-01 -.226E+00   0.423E-03 0.174E-03 0.102E-02
   -.141E+02 0.394E-01 -.138E+04   0.136E+02 -.394E-01 0.138E+04   0.581E+00 -.450E-02 0.230E+00   -.577E-03 -.120E-04 0.150E-02
   -.400E+00 0.137E-01 -.891E+03   0.833E-01 -.154E-01 0.891E+03   0.315E+00 0.321E-02 -.159E+00   0.299E-03 0.155E-05 0.108E-02
   -.152E+01 0.237E+01 -.139E+04   0.112E+01 -.240E+01 0.139E+04   0.445E+00 0.287E-01 0.213E+00   -.314E-03 0.161E-03 0.156E-02
   0.370E+02 0.148E+02 -.321E+04   -.379E+02 -.147E+02 0.321E+04   0.911E+00 -.836E-01 -.985E+00   -.258E-02 0.248E-03 -.111E-01
   -.927E+02 -.207E+00 -.368E+04   0.908E+02 0.205E+00 0.368E+04   0.184E+01 0.218E-02 0.209E+01   0.267E-02 -.218E-04 -.166E-01
   0.142E+02 0.761E-01 -.320E+04   -.150E+02 -.729E-01 0.320E+04   0.843E+00 0.149E-01 -.931E+00   -.319E-02 -.412E-04 -.104E-01
   -.722E+02 0.425E+02 -.367E+04   0.702E+02 -.425E+02 0.366E+04   0.191E+01 -.771E-02 0.208E+01   0.319E-02 0.228E-03 -.154E-01
   0.136E+01 -.484E-02 0.388E+04   0.474E+01 0.527E-02 -.388E+04   -.225E+01 0.167E-01 -.484E+01   -.581E-03 0.616E-05 0.151E-01
   0.928E+01 0.441E+00 0.319E+04   -.110E+02 -.446E+00 -.319E+04   0.218E-01 0.301E-02 0.274E+00   0.608E-03 -.118E-03 0.475E-02
   0.156E+01 0.115E-01 0.388E+04   0.449E+01 -.992E-02 -.388E+04   -.224E+01 0.160E-01 -.484E+01   -.338E-03 -.999E-05 0.152E-01
   0.557E+01 0.180E-01 0.319E+04   -.724E+01 -.186E-01 -.319E+04   0.141E-01 0.151E-02 0.264E+00   0.423E-03 0.645E-06 0.494E-02
   0.131E+01 -.842E-01 0.145E+04   -.134E+01 0.861E-01 -.145E+04   0.128E-01 0.871E-02 -.664E-01   -.271E-03 0.335E-05 -.696E-02
   0.253E+01 0.265E+01 0.922E+03   -.263E+01 -.259E+01 -.922E+03   0.966E-01 -.550E-01 0.140E+00   0.192E-04 0.996E-05 -.571E-02
   0.282E+01 0.295E+00 0.145E+04   -.296E+01 -.271E+00 -.145E+04   0.142E+00 -.243E-01 -.185E+00   -.210E-03 -.528E-04 -.700E-02
   -.122E+02 0.956E-01 0.888E+03   0.120E+02 -.938E-01 -.888E+03   0.224E+00 -.953E-02 0.655E-01   -.472E-05 0.476E-05 -.550E-02
   -.309E+01 -.542E-01 -.909E+03   0.306E+01 0.570E-01 0.910E+03   0.294E-01 0.349E-03 -.144E+00   0.323E-03 0.486E-05 0.119E-02
   -.168E+02 0.589E+01 -.135E+04   0.164E+02 -.588E+01 0.135E+04   0.474E+00 -.173E-01 0.317E+00   -.298E-03 0.310E-03 0.168E-02
   0.438E+01 0.269E+01 -.864E+03   -.472E+01 -.267E+01 0.864E+03   0.354E+00 -.239E-01 -.108E+00   0.168E-03 0.118E-03 0.106E-02
   -.312E+01 0.220E+00 -.143E+04   0.279E+01 -.216E+00 0.143E+04   0.351E+00 0.792E-02 0.482E-01   -.211E-03 -.650E-06 0.205E-02
   0.560E+02 0.467E-01 -.321E+04   -.565E+02 -.457E-01 0.321E+04   0.512E+00 0.142E-01 -.795E+00   -.206E-02 0.194E-04 -.101E-01
   -.111E+03 0.346E+02 -.367E+04   0.109E+03 -.344E+02 0.367E+04   0.186E+01 -.231E+00 0.211E+01   0.124E-02 0.126E-02 -.146E-01
   -.126E+02 0.668E+02 -.309E+04   0.117E+02 -.667E+02 0.309E+04   0.100E+01 -.858E-01 -.598E+00   -.188E-02 0.156E-02 -.739E-02
   0.326E+02 -.691E+00 -.361E+04   -.338E+02 0.679E+00 0.361E+04   0.129E+01 0.279E-01 0.111E+01   0.366E-02 0.814E-04 -.146E-01
   -.400E+02 -.181E+00 0.221E+04   0.453E+02 0.183E+00 -.223E+04   -.713E+01 -.186E-02 0.165E+02   -.311E-03 0.246E-04 0.140E-01
   -.405E+02 -.167E+00 0.221E+04   0.458E+02 0.167E+00 -.223E+04   -.712E+01 0.644E-03 0.165E+02   -.466E-03 0.275E-04 0.141E-01
   0.950E+02 0.582E-01 0.132E+04   -.989E+02 -.815E-01 -.131E+04   0.301E+01 0.223E-01 -.479E+01   0.797E-05 0.282E-04 -.909E-03
   0.893E+02 -.168E+00 0.161E+04   -.963E+02 0.174E+00 -.161E+04   0.740E+01 -.137E-01 -.264E+01   0.103E-03 0.113E-04 0.257E-02
   -.101E+03 -.206E+00 0.187E+04   0.108E+03 0.208E+00 -.187E+04   -.701E+01 -.597E-02 -.613E+00   0.830E-04 -.145E-03 0.649E-02
   -.794E+02 -.975E+00 0.102E+04   0.852E+02 0.100E+01 -.103E+04   -.589E+01 -.191E-01 0.415E+01   -.134E-03 0.282E-04 -.331E-02
   0.959E+02 0.508E-01 0.132E+04   -.998E+02 -.407E-01 -.131E+04   0.297E+01 -.125E-01 -.463E+01   0.102E-03 0.382E-04 -.864E-03
   0.881E+02 0.988E-02 0.161E+04   -.951E+02 -.165E-01 -.161E+04   0.742E+01 0.105E-01 -.266E+01   0.478E-04 0.777E-04 0.260E-02
   -.101E+03 -.586E-01 0.187E+04   0.108E+03 0.624E-01 -.187E+04   -.698E+01 -.126E-01 -.619E+00   0.117E-03 0.196E-03 0.653E-02
   -.855E+02 0.367E+00 0.102E+04   0.915E+02 -.388E+00 -.103E+04   -.602E+01 0.196E-01 0.431E+01   -.158E-03 0.232E-04 -.329E-02
   0.916E+02 -.815E+00 0.136E+03   -.980E+02 0.823E+00 -.132E+03   0.647E+01 -.607E-02 -.460E+01   0.654E-04 -.178E-04 -.212E-02
   0.940E+02 -.161E+00 0.456E+03   -.101E+03 0.940E-01 -.453E+03   0.657E+01 0.679E-01 -.295E+01   0.176E-03 0.151E-04 -.322E-02
   -.940E+02 -.474E+00 0.725E+03   0.101E+03 0.535E+00 -.728E+03   -.657E+01 -.663E-01 0.268E+01   -.676E-04 0.257E-04 -.358E-02
   -.735E+02 -.174E+00 -.106E+03   0.786E+02 0.835E-01 0.101E+03   -.514E+01 0.849E-01 0.466E+01   -.175E-03 -.340E-04 -.316E-03
   0.925E+02 0.136E+01 0.148E+03   -.986E+02 -.144E+01 -.144E+03   0.616E+01 0.859E-01 -.373E+01   0.325E-04 0.733E-05 -.204E-02
   0.899E+02 0.567E+00 0.450E+03   -.963E+02 -.537E+00 -.448E+03   0.638E+01 -.312E-01 -.289E+01   0.177E-03 -.309E-04 -.314E-02
   -.912E+02 0.851E-01 0.725E+03   0.976E+02 -.950E-01 -.728E+03   -.643E+01 0.665E-02 0.273E+01   -.449E-04 0.275E-05 -.359E-02
   -.783E+02 0.158E+01 -.112E+03   0.839E+02 -.172E+01 0.107E+03   -.559E+01 0.132E+00 0.509E+01   -.160E-03 -.246E-04 -.311E-03
   0.947E+02 -.222E+01 -.106E+04   -.101E+03 0.218E+01 0.107E+04   0.603E+01 0.352E-01 -.640E+01   -.107E-03 -.851E-04 0.720E-03
   0.911E+02 -.290E+01 -.697E+03   -.977E+02 0.278E+01 0.700E+03   0.666E+01 0.115E+00 -.300E+01   0.108E-03 -.687E-04 0.918E-03
   -.956E+02 -.165E+01 -.436E+03   0.102E+03 0.176E+01 0.433E+03   -.646E+01 -.119E+00 0.273E+01   0.952E-04 -.954E-04 0.720E-03
   -.766E+02 -.162E+02 -.121E+04   0.798E+02 0.168E+02 0.120E+04   -.327E+01 -.585E+00 0.880E+01   0.281E-03 -.327E-03 -.447E-03
   0.937E+02 -.173E+02 -.101E+04   -.999E+02 0.179E+02 0.102E+04   0.619E+01 -.674E+00 -.494E+01   -.195E-03 -.226E-03 0.934E-03
   0.939E+02 -.229E+01 -.713E+03   -.100E+03 0.237E+01 0.716E+03   0.630E+01 -.710E-01 -.326E+01   0.150E-03 -.152E-03 0.106E-02
   -.885E+02 -.210E+01 -.428E+03   0.947E+02 0.207E+01 0.425E+03   -.631E+01 0.337E-01 0.280E+01   0.711E-04 -.343E-04 0.692E-03
   -.495E+02 -.110E+02 -.122E+04   0.520E+02 0.112E+02 0.121E+04   -.252E+01 -.209E+00 0.865E+01   0.423E-03 -.124E-03 -.106E-02
   0.672E+02 -.151E+02 -.224E+04   -.718E+02 0.151E+02 0.226E+04   0.461E+01 0.910E-01 -.194E+02   0.103E-02 -.721E-03 -.149E-01
   0.703E+02 -.670E+01 -.195E+04   -.750E+02 0.664E+01 0.196E+04   0.469E+01 0.601E-01 -.748E+01   -.210E-03 -.525E-03 -.100E-01
   -.593E+02 -.785E+01 -.158E+04   0.643E+02 0.781E+01 0.158E+04   -.510E+01 0.404E-01 0.299E+01   -.733E-03 -.220E-03 -.467E-02
   0.164E+02 -.375E+02 -.220E+04   -.207E+02 0.374E+02 0.222E+04   0.438E+01 0.134E+00 -.176E+02   -.469E-03 -.154E-02 -.122E-01
   0.926E+02 -.560E+02 -.189E+04   -.972E+02 0.560E+02 0.190E+04   0.468E+01 0.864E-02 -.664E+01   0.532E-03 -.892E-03 -.772E-02
   -.774E+02 -.149E+02 -.156E+04   0.830E+02 0.145E+02 0.156E+04   -.569E+01 0.310E+00 0.324E+01   -.692E-03 -.165E-03 -.415E-02
   -.400E+02 0.481E-02 0.221E+04   0.454E+02 -.447E-02 -.223E+04   -.713E+01 -.160E-03 0.165E+02   -.496E-03 0.130E-04 0.141E-01
   -.405E+02 0.172E+00 0.221E+04   0.458E+02 -.171E+00 -.223E+04   -.712E+01 -.113E-02 0.165E+02   -.817E-03 -.251E-04 0.141E-01
   0.949E+02 0.754E-01 0.132E+04   -.989E+02 -.813E-01 -.131E+04   0.301E+01 0.826E-02 -.479E+01   -.241E-03 -.248E-04 -.112E-02
   0.893E+02 0.167E+00 0.161E+04   -.963E+02 -.172E+00 -.161E+04   0.740E+01 0.334E-02 -.264E+01   0.375E-03 -.285E-04 0.246E-02
   -.101E+03 0.522E-02 0.187E+04   0.108E+03 -.520E-02 -.187E+04   -.700E+01 -.300E-02 -.621E+00   0.115E-03 0.293E-03 0.650E-02
   -.803E+02 0.147E+00 0.102E+04   0.861E+02 -.166E+00 -.103E+04   -.591E+01 0.210E-01 0.423E+01   -.114E-03 0.871E-05 -.332E-02
   0.953E+02 0.506E-01 0.132E+04   -.992E+02 -.589E-01 -.131E+04   0.295E+01 0.810E-02 -.475E+01   -.156E-04 -.243E-05 -.101E-02
   0.884E+02 0.835E-03 0.161E+04   -.954E+02 -.148E-03 -.161E+04   0.742E+01 -.517E-02 -.263E+01   0.209E-03 -.737E-04 0.254E-02
   -.101E+03 0.669E-01 0.187E+04   0.108E+03 -.702E-01 -.187E+04   -.698E+01 0.662E-02 -.618E+00   0.188E-03 -.190E-03 0.652E-02
   -.854E+02 -.657E-01 0.102E+04   0.913E+02 0.510E-01 -.103E+04   -.601E+01 0.193E-01 0.431E+01   -.114E-03 -.257E-04 -.324E-02
   0.914E+02 0.677E+00 0.136E+03   -.979E+02 -.675E+00 -.132E+03   0.646E+01 -.514E-02 -.459E+01   0.905E-04 0.140E-04 -.211E-02
   0.941E+02 0.127E+00 0.456E+03   -.101E+03 -.534E-01 -.453E+03   0.657E+01 -.768E-01 -.295E+01   0.144E-03 -.109E-04 -.322E-02
   -.919E+02 -.315E-01 0.725E+03   0.983E+02 0.387E-01 -.728E+03   -.646E+01 -.173E-01 0.272E+01   -.893E-04 -.334E-04 -.362E-02
   -.758E+02 0.409E-01 -.109E+03   0.811E+02 -.394E-01 0.104E+03   -.538E+01 -.148E-02 0.491E+01   -.218E-03 -.439E-05 -.341E-03
   0.914E+02 0.153E-01 0.141E+03   -.977E+02 -.165E-01 -.137E+03   0.625E+01 -.149E-02 -.432E+01   0.546E-04 0.195E-05 -.212E-02
   0.902E+02 0.291E-01 0.449E+03   -.965E+02 -.299E-01 -.446E+03   0.638E+01 -.245E-02 -.304E+01   0.189E-03 0.503E-05 -.319E-02
   -.913E+02 -.426E-01 0.725E+03   0.976E+02 0.542E-01 -.728E+03   -.643E+01 -.168E-01 0.273E+01   -.460E-04 -.272E-05 -.358E-02
   -.783E+02 -.146E+01 -.112E+03   0.838E+02 0.159E+01 0.107E+03   -.560E+01 -.130E+00 0.510E+01   -.149E-03 0.244E-04 -.315E-03
   0.947E+02 0.201E+01 -.106E+04   -.101E+03 -.196E+01 0.107E+04   0.604E+01 -.498E-01 -.641E+01   -.101E-03 0.824E-04 0.718E-03
   0.913E+02 0.299E+01 -.696E+03   -.979E+02 -.286E+01 0.699E+03   0.669E+01 -.134E+00 -.300E+01   0.106E-03 0.664E-04 0.917E-03
   -.913E+02 -.968E-01 -.442E+03   0.975E+02 0.106E+00 0.440E+03   -.627E+01 -.108E-01 0.257E+01   0.112E-03 -.871E-05 0.632E-03
   -.653E+02 -.157E+00 -.122E+04   0.682E+02 0.174E+00 0.121E+04   -.294E+01 -.199E-01 0.883E+01   0.249E-03 -.796E-05 -.105E-02
   0.933E+02 -.357E-01 -.105E+04   -.994E+02 0.416E-01 0.105E+04   0.615E+01 -.975E-02 -.637E+01   -.209E-03 -.746E-05 0.797E-03
   0.926E+02 0.301E-01 -.710E+03   -.989E+02 -.281E-01 0.713E+03   0.631E+01 -.440E-03 -.318E+01   0.162E-03 0.226E-05 0.911E-03
   -.885E+02 0.215E+01 -.428E+03   0.947E+02 -.212E+01 0.425E+03   -.631E+01 -.343E-01 0.281E+01   0.650E-04 0.394E-04 0.685E-03
   -.494E+02 0.118E+02 -.122E+04   0.519E+02 -.120E+02 0.121E+04   -.252E+01 0.269E+00 0.866E+01   0.408E-03 0.112E-03 -.108E-02
   0.673E+02 0.148E+02 -.224E+04   -.718E+02 -.147E+02 0.226E+04   0.461E+01 -.124E+00 -.194E+02   0.101E-02 0.700E-03 -.149E-01
   0.702E+02 0.658E+01 -.196E+04   -.748E+02 -.652E+01 0.196E+04   0.466E+01 -.607E-01 -.748E+01   -.207E-03 0.522E-03 -.100E-01
   -.708E+02 0.112E+00 -.158E+04   0.766E+02 -.121E+00 0.158E+04   -.592E+01 0.642E-02 0.324E+01   -.650E-03 -.746E-05 -.518E-02
   0.513E+02 0.490E-01 -.224E+04   -.560E+02 -.572E-01 0.226E+04   0.484E+01 0.940E-02 -.194E+02   0.144E-03 -.217E-04 -.149E-01
   0.679E+02 -.606E-01 -.196E+04   -.721E+02 0.647E-01 0.197E+04   0.430E+01 0.223E-02 -.800E+01   0.215E-03 -.246E-04 -.997E-02
   -.777E+02 0.149E+02 -.156E+04   0.833E+02 -.146E+02 0.156E+04   -.570E+01 -.315E+00 0.319E+01   -.682E-03 0.137E-03 -.418E-02
   -.400E+02 0.180E+00 0.221E+04   0.453E+02 -.180E+00 -.223E+04   -.713E+01 0.116E-02 0.165E+02   -.314E-03 -.366E-04 0.140E-01
   -.405E+02 -.426E-03 0.221E+04   0.459E+02 0.972E-03 -.223E+04   -.715E+01 -.437E-03 0.165E+02   -.701E-03 -.396E-06 0.140E-01
   0.958E+02 0.702E-01 0.132E+04   -.999E+02 -.854E-01 -.131E+04   0.313E+01 0.157E-01 -.480E+01   -.127E-03 -.197E-05 -.102E-02
   0.894E+02 -.120E-01 0.161E+04   -.964E+02 0.131E-01 -.161E+04   0.739E+01 -.603E-02 -.264E+01   0.276E-03 0.185E-04 0.248E-02
   -.101E+03 0.200E+00 0.187E+04   0.108E+03 -.200E+00 -.187E+04   -.701E+01 -.125E-02 -.613E+00   0.138E-03 -.146E-03 0.645E-02
   -.794E+02 0.126E+01 0.102E+04   0.851E+02 -.132E+01 -.103E+04   -.588E+01 0.621E-01 0.414E+01   -.122E-03 -.364E-04 -.330E-02
   0.959E+02 0.743E-02 0.132E+04   -.998E+02 -.355E-01 -.131E+04   0.296E+01 0.304E-01 -.462E+01   0.844E-04 -.366E-04 -.857E-03
   0.881E+02 -.298E-01 0.161E+04   -.951E+02 0.382E-01 -.161E+04   0.743E+01 -.221E-01 -.266E+01   0.701E-04 -.412E-05 0.261E-02
   -.101E+03 -.711E-02 0.186E+04   0.108E+03 0.794E-02 -.187E+04   -.697E+01 -.423E-02 -.636E+00   0.127E-03 -.860E-05 0.654E-02
   -.948E+02 0.157E+00 0.102E+04   0.102E+03 -.175E+00 -.102E+04   -.665E+01 0.195E-01 0.421E+01   -.147E-03 0.388E-05 -.319E-02
   0.963E+02 -.865E-01 0.135E+03   -.103E+03 0.918E-01 -.131E+03   0.706E+01 -.893E-02 -.464E+01   0.114E-03 0.340E-05 -.204E-02
   0.904E+02 -.971E-01 0.462E+03   -.967E+02 0.102E+00 -.459E+03   0.627E+01 -.167E-02 -.273E+01   0.169E-03 -.455E-05 -.318E-02
   -.942E+02 0.239E+00 0.725E+03   0.101E+03 -.278E+00 -.728E+03   -.659E+01 0.304E-01 0.269E+01   -.857E-04 0.637E-05 -.358E-02
   -.733E+02 0.125E+00 -.106E+03   0.784E+02 -.270E-01 0.101E+03   -.512E+01 -.102E+00 0.465E+01   -.184E-03 0.382E-04 -.318E-03
   0.925E+02 -.141E+01 0.148E+03   -.986E+02 0.150E+01 -.145E+03   0.616E+01 -.915E-01 -.369E+01   0.349E-04 -.934E-05 -.204E-02
   0.900E+02 -.608E+00 0.450E+03   -.964E+02 0.578E+00 -.448E+03   0.639E+01 0.291E-01 -.290E+01   0.183E-03 0.256E-04 -.314E-02
   -.874E+02 -.529E-01 0.725E+03   0.936E+02 0.561E-01 -.728E+03   -.620E+01 -.693E-02 0.277E+01   -.745E-04 -.121E-07 -.354E-02
   -.950E+02 0.198E+00 -.127E+03   0.102E+03 -.209E+00 0.122E+03   -.694E+01 0.134E-01 0.443E+01   -.193E-03 0.601E-06 -.193E-03
   0.102E+03 -.562E-01 -.106E+04   -.109E+03 0.654E-01 0.106E+04   0.683E+01 -.118E-01 -.643E+01   -.673E-04 0.278E-05 0.726E-03
   0.809E+02 -.215E+00 -.696E+03   -.868E+02 0.224E+00 0.700E+03   0.601E+01 -.711E-02 -.309E+01   0.102E-03 0.194E-05 0.110E-02
   -.960E+02 0.137E+01 -.436E+03   0.102E+03 -.146E+01 0.433E+03   -.648E+01 0.881E-01 0.273E+01   0.950E-04 0.102E-03 0.721E-03
   -.770E+02 0.166E+02 -.121E+04   0.802E+02 -.173E+02 0.120E+04   -.329E+01 0.624E+00 0.880E+01   0.296E-03 0.335E-03 -.449E-03
   0.936E+02 0.173E+02 -.101E+04   -.998E+02 -.180E+02 0.101E+04   0.618E+01 0.684E+00 -.485E+01   -.198E-03 0.233E-03 0.909E-03
   0.939E+02 0.220E+01 -.714E+03   -.100E+03 -.228E+01 0.717E+03   0.629E+01 0.688E-01 -.330E+01   0.154E-03 0.150E-03 0.105E-02
   -.843E+02 -.758E-01 -.440E+03   0.905E+02 0.793E-01 0.437E+03   -.625E+01 -.547E-02 0.228E+01   0.290E-04 -.532E-05 0.886E-03
   -.642E+02 -.538E+00 -.124E+04   0.697E+02 0.572E+00 0.123E+04   -.559E+01 -.391E-01 0.653E+01   0.480E-03 0.119E-04 -.117E-02
   0.124E+03 0.761E-02 -.222E+04   -.129E+03 -.172E-01 0.224E+04   0.538E+01 0.936E-02 -.193E+02   0.180E-02 0.240E-04 -.136E-01
   0.499E+02 -.125E-01 -.194E+04   -.535E+02 0.200E-01 0.195E+04   0.369E+01 -.944E-02 -.715E+01   -.823E-03 0.366E-05 -.894E-02
   -.589E+02 0.796E+01 -.158E+04   0.638E+02 -.792E+01 0.158E+04   -.506E+01 -.374E-01 0.301E+01   -.742E-03 0.226E-03 -.467E-02
   0.160E+02 0.372E+02 -.220E+04   -.202E+02 -.371E+02 0.222E+04   0.430E+01 -.112E+00 -.174E+02   -.436E-03 0.156E-02 -.122E-01
   0.933E+02 0.562E+02 -.189E+04   -.980E+02 -.563E+02 0.190E+04   0.472E+01 0.180E-01 -.657E+01   0.520E-03 0.910E-03 -.771E-02
   -.636E+02 -.284E+00 -.144E+04   0.675E+02 0.283E+00 0.144E+04   -.392E+01 -.312E-02 0.512E+01   -.401E-03 0.303E-04 -.264E-02
 -----------------------------------------------------------------------------------------------
   -.279E+02 -.156E+01 0.759E+02   -.853E-13 0.966E-12 -.182E-11   0.279E+02 0.160E+01 -.756E+02   -.774E-03 0.703E-04 -.206E+00
 
 
 POSITION                                       TOTAL-FORCE (eV/Angst)
 -----------------------------------------------------------------------------------
      7.12620      5.86719     19.49735         0.052950     -0.086242      0.001261
      7.07834      7.40329     19.54031         0.051494      0.082883      0.001624
      6.49504      6.61614     19.55688        -0.180138      0.000970     -0.090884
      8.29939     10.41358      6.17860         3.843784      0.019528      1.674401
      6.08041      8.51877      7.05919        -1.652228      0.003443     -1.989249
      3.16252      8.51877      6.17860         3.810433      0.015984      1.650945
      0.94354     10.41358      7.05919        -1.692563     -0.003164     -1.991806
      9.70823     10.41653      9.74251         0.002695      0.011261     -0.044055
      7.46699      8.51530     10.53688         0.002923     -0.006639      0.033011
      4.56332      8.51729      9.73765        -0.005202      0.023534     -0.049358
      2.31709     10.41383     10.55258         0.027505     -0.010580     -0.006239
      0.88600     10.41929     13.30855         0.020808     -0.011547     -0.028592
      8.89080      8.51622     14.00205         0.035317      0.011086      0.070315
      6.00380      8.51968     13.27519        -0.001611     -0.003749     -0.000965
      3.73988     10.41619     14.04341         0.045982     -0.006964      0.059246
      2.37439     10.40804     16.94761         0.036928     -0.005785      0.077510
      0.00080      8.51036     17.49226         0.006586      0.008169      0.082705
      7.48737      8.50941     16.84011         0.037927      0.034524      0.061654
      5.17150     10.42543     17.49800        -0.024291      0.016261      0.072138
      8.29939      2.83437      6.17860         3.843303      0.013370      1.673617
      6.08041      0.93957      7.05919        -1.676596      0.000351     -1.987001
      3.16252      0.93957      6.17860         3.835056      0.016148      1.666882
      0.94354      2.83437      7.05919        -1.692038      0.003724     -1.991803
      9.70793      2.83400      9.74246         0.009365     -0.004520     -0.049628
      7.45859      0.94078     10.54238         0.005888     -0.005497      0.023326
      4.56525      0.94027      9.74200        -0.001642      0.012275     -0.045621
      2.31721      2.83557     10.55224         0.023798     -0.011348     -0.002810
      0.88573      2.83383     13.30815         0.015613      0.007035     -0.035905
      8.87573      0.94206     14.02068         0.045565     -0.004854      0.030456
      6.01072      0.94145     13.29279        -0.000874      0.001217     -0.031678
      3.73962      2.83538     14.04328         0.040528     -0.005965      0.054011
      2.37419      2.84586     16.94741         0.040539     -0.022102      0.073502
      0.02814      0.94277     17.49234        -0.012395     -0.000817      0.099893
      7.52107      0.94159     16.91601         0.025182      0.017848      0.089507
      5.17113      2.82595     17.49748        -0.028503     -0.002121      0.067172
      8.29939      6.62397      6.17860         3.850388      0.016808      1.665734
      6.08041      4.72917      7.05919        -1.650740     -0.002116     -1.989136
      3.16252      4.72917      6.17860         3.809436      0.017304      1.649703
      0.94354      6.62397      7.05919        -1.660866      0.000650     -1.928761
      9.72353      6.62543      9.73659        -0.013837      0.010352     -0.030989
      7.46737      4.73521     10.53664         0.003882      0.003139      0.026118
      4.56309      4.73221      9.73742         0.002709     -0.001357     -0.034096
      2.32131      6.62471     10.58159         0.012380     -0.008025     -0.005241
      0.91630      6.62697     13.31408        -0.007277      0.002829     -0.027901
      8.89170      4.73694     14.00116         0.036671     -0.007609      0.063587
      6.00310      4.73197     13.27426         0.009302     -0.009795     -0.003078
      3.76120      6.62596     14.12670         0.019935      0.011836      0.041012
      2.40893      6.62656     16.96081         0.014555      0.014834      0.076443
     10.27296      4.74371     17.49310         0.008816     -0.001462      0.074479
      7.48577      4.74301     16.83609         0.049854     -0.016424      0.074520
      5.19016      6.62568     17.66659         0.020943      0.015680      0.128797
      5.01582      8.51877      5.44312        -1.802688     -0.000341      1.082534
     10.15269     10.41358      5.44312        -1.796396      0.000049      1.075757
      9.36399     10.41358      7.79467        -0.936754     -0.001266     -0.193054
      6.44609     10.41358      6.91407         0.409383     -0.008648     -0.074744
      7.93372      8.51877      6.32372         0.206938     -0.005193     -1.040421
      6.41366      8.51877      8.96550        -0.118959      0.005817      0.402281
      4.22711      8.51877      7.79467        -0.945942     -0.002661     -0.181941
      1.30921      8.51877      6.91407         0.421169      0.003666     -0.082192
      2.79684     10.41358      6.32372         0.218308     -0.008838     -1.042397
      1.27678     10.41358      8.96550        -0.032118     -0.001887      0.475709
      0.50823     10.41679     11.33652         0.036440      0.002081      0.012046
      7.84864     10.41418     10.43341         0.031210      0.000764     -0.007736
      9.34434      8.51880      9.85449        -0.037533     -0.006077      0.010671
      7.85059      8.51309     12.45976        -0.053841     -0.005467     -0.006115
      5.64053      8.51361     11.33394         0.039537     -0.003197      0.002090
      2.70924      8.51789     10.44894         0.029758     -0.001794     -0.006418
      4.19748     10.41301      9.85309        -0.048098     -0.003515      0.016758
      2.71509     10.40998     12.48569        -0.050846     -0.006072     -0.008523
      1.97966     10.41240     14.88548         0.044335     -0.002410      0.029920
      9.28796     10.41781     13.93581         0.038442     -0.008455     -0.000598
      0.52938      8.51865     13.38379        -0.052092     -0.001935      0.010316
      9.38637      8.53464     15.95254        -0.077597      0.001942      0.008533
      7.13032      8.55073     14.84291         0.034300     -0.002279      0.021074
      4.15793      8.51840     13.98937         0.039552      0.008680     -0.022407
      5.64192     10.41566     13.37148        -0.044823      0.000069      0.014540
      4.23808     10.42924     15.98329        -0.073058      0.000208      0.011781
      3.56032     10.41137     18.37859         0.051407     -0.001910     -0.139217
      0.53022     10.40847     17.72546         0.034786     -0.003247     -0.022503
      2.00059      8.51630     16.95521        -0.079391      0.000474      0.033220
      8.64190      8.45769     18.34096         0.045922      0.005021     -0.101570
      5.69538      8.53886     17.70853         0.040899      0.011459     -0.012406
      7.13996     10.42043     16.89407        -0.075643     -0.003303      0.027776
      5.01582      0.93957      5.44312        -1.799612     -0.000100      1.078195
     10.15269      2.83437      5.44312        -1.796469     -0.000322      1.075989
      9.36399      2.83437      7.79467        -0.936836      0.002056     -0.192907
      6.44609      2.83437      6.91407         0.409397     -0.001190     -0.074752
      7.93372      0.93957      6.32372         0.210234     -0.002983     -1.042311
      6.41366      0.93957      8.96550        -0.099139      0.001738      0.408152
      4.22711      0.93957      7.79467        -0.944463     -0.000458     -0.187707
      1.30921      0.93957      6.91407         0.415444     -0.004853     -0.074917
      2.79684      2.83437      6.32372         0.218329      0.002851     -1.042290
      1.27678      2.83437      8.96550        -0.033112      0.004344      0.473506
      0.50817      2.83467     11.33636         0.036500     -0.003105      0.014362
      7.84866      2.83602     10.43335         0.029796     -0.003264     -0.008153
      9.34096      0.94064      9.85310        -0.042159     -0.010528      0.015799
      7.84607      0.94147     12.46914        -0.051369     -0.000258     -0.010923
      5.64126      0.94077     11.33148         0.040644     -0.003032      0.005764
      2.70920      0.94034     10.44768         0.033417     -0.003567     -0.004097
      4.19746      2.83638      9.85292        -0.046419     -0.005585      0.014751
      2.71518      2.84089     12.48537        -0.053857     -0.001946     -0.002551
      1.97941      2.84095     14.88515         0.043828     -0.000294      0.021461
      9.28784      2.83506     13.93501         0.042826     -0.005862     -0.001877
      0.52832      0.94184     13.38777        -0.056932     -0.002039      0.016273
      9.38428      0.94292     15.96598        -0.074673     -0.002778      0.015469
      7.12133      0.94199     14.85964         0.044097     -0.004208      0.034909
      4.14707      0.94137     13.96579         0.046154      0.001250     -0.005422
      5.64145      2.83601     13.37092        -0.043566     -0.002132      0.014073
      4.23756      2.82019     15.98300        -0.072536     -0.000974      0.016205
      3.56038      2.84293     18.37824         0.050127      0.001283     -0.137585
      0.52961      2.84588     17.72653         0.037865      0.003747     -0.022694
      2.00026      0.94270     16.94780        -0.077276     -0.002794      0.030829
      8.68804      0.94157     18.36349         0.062024      0.000917     -0.140287
      5.69398      0.94138     17.73716         0.038957      0.005993     -0.025713
      7.14067      2.83175     16.89519        -0.074913      0.006006      0.029101
      5.01582      4.72917      5.44312        -1.802980      0.000048      1.082848
     10.15269      6.62397      5.44312        -1.809477     -0.000185      1.065083
      9.36399      6.62397      7.79467        -0.950587      0.000187     -0.202612
      6.44609      6.62397      6.91407         0.407154     -0.005279     -0.074049
      7.93372      4.72917      6.32372         0.206769     -0.001519     -1.040307
      6.41366      4.72917      8.96550        -0.119143     -0.002539      0.402653
      4.22711      4.72917      7.79467        -0.946214      0.002050     -0.182023
      1.30921      4.72917      6.91407         0.421374     -0.014000     -0.082199
      2.79684      6.62397      6.32372         0.222827     -0.003697     -1.046677
      1.27678      6.62397      8.96550         0.024617      0.001019      0.593221
      0.51514      6.62585     11.34309         0.032619     -0.003860      0.019950
      7.84986      6.62514     10.42611         0.032372      0.002863     -0.011880
      9.34424      4.73136      9.85456        -0.037044     -0.009160      0.011069
      7.85052      4.73891     12.45960        -0.053658     -0.003465     -0.011097
      5.64034      4.73701     11.33392         0.044445     -0.000636      0.002225
      2.70929      4.73160     10.44890         0.033031     -0.001162     -0.009140
      4.19831      6.62468      9.85352        -0.048232     -0.004067      0.022256
      2.72817      6.62525     12.51382        -0.040237      0.001874     -0.007891
      1.98527      6.62686     14.90732         0.034925     -0.002938      0.028651
      9.29033      6.62630     13.95045         0.050997      0.001587     -0.000172
      0.52926      4.73423     13.38365        -0.048023     -0.004289      0.008417
      9.38611      4.71719     15.95241        -0.071239     -0.002595      0.013345
      7.13042      4.70139     14.84234         0.031028      0.003645      0.023432
      4.15814      4.73323     13.99082         0.037892     -0.007009     -0.020508
      5.65798      6.62575     13.40584        -0.049431     -0.002223      0.011557
      4.24724      6.62769     16.06170        -0.075009     -0.004980      0.012022
      3.54223      6.62603     18.44083         0.045629     -0.000523     -0.120551
      0.52923      6.62674     17.72076         0.038584     -0.002224     -0.021626
      1.99958      4.73727     16.95421        -0.077071     -0.003937      0.036060
      8.63898      4.80105     18.34066         0.044593     -0.005712     -0.098080
      5.69352      4.71342     17.70097         0.036401     -0.007332     -0.011161
      7.11547      6.62677     16.79316        -0.068063     -0.003953      0.024994
 -----------------------------------------------------------------------------------
    total drift:                               -0.001421      0.043037      0.037020


--------------------------------------------------------------------------------------------------------



  FREE ENERGIE OF THE ION-ELECTRON SYSTEM (eV)
  ---------------------------------------------------
  free  energy   TOTEN  =     -1047.46776677 eV

  energy  without entropy=    -1047.46776677  energy(sigma->0) =    -1047.46776677
 


--------------------------------------------------------------------------------------------------------


    POTLOK:  cpu time      2.6817: real time      2.6886


--------------------------------------------------------------------------------------------------------


     LOOP+:  cpu time    140.2993: real time    140.7515
    4ORBIT:  cpu time      0.0000: real time      0.0000

 total amount of memory used by VASP MPI-rank0  3380431. kBytes
=======================================================================

   base      :      30000. kBytes
   nonlr-proj:      43534. kBytes
   fftplans  :     100785. kBytes
   grid      :     260582. kBytes
   one-center:       2286. kBytes
   wavefun   :    2943244. kBytes
 
  
  
 General timing and accounting informations for this job:
 ========================================================
  
                  Total CPU time used (sec):      168.998
                            User time (sec):      165.942
                          System time (sec):        3.055
                         Elapsed time (sec):      173.059
  
                   Maximum memory used (kb):     4687036.
                   Average memory used (kb):          N/A
  
                          Minor page faults:       278890
                          Major page faults:            0
                 Voluntary context switches:        13835
