 vasp.6.3.0 20Jan22 (build Dec 25 2023 18:06:01) complex                         
 executed on        HPECrayEX_GCC date 2024.02.07  22:11:05
 running 1024 mpi-ranks, with    1 threads/rank
 distrk:  each k-point on 1024 cores,    1 groups
 distr:  one band on NCORE=   4 cores,  256 groups


--------------------------------------------------------------------------------------------------------


 INCAR:
   SYSTEM = TiO2
   ISMEAR = 0
   SIGMA = 0.05
   EDIFF = 1E-4
   ALGO = ALL
   ICHARG = 1
   IBRION = -1
   NSW = 0
   ISYM = 0
   ISIF = 2
   EDIFFG = -0.01
   DIPOL = 0.5 0.5 0.5
   IDIPOL = 3
   LDIPOL = .TRUE.
   LHFCALC = .TRUE.
   HFSCREEN = 0.2
   GGA = PE
   IVDW = 13
   VDW_S8 = 1.19528249
   VDW_A1 = 0.38663183
   VDW_A2 = 5.19133469
   ENCUT = 520
   PREC = Normal
   PRECFOCK = Fast
   LASPH = .TRUE.
   LREAL = .FALSE.
   ISPIN = 1
   NELM = 200
   NELMIN = 8
   NCORE = 4
   KPAR = 1
   NKREDX = 2
   NKREDY = 2
   LWAVE = .FALSE.
   LCHARG = .FALSE.

 POTCAR:    PAW_PBE Ti 08Apr2002                  
 POTCAR:    PAW_PBE O 08Apr2002                   
 POTCAR:    PAW_PBE Ti 08Apr2002                  
   SHA256 =  f8e8f1d080d9e9b45e792f1068744b07aba8441d1e7ce11486a5d4c0f5a1479e Ti/POTCAR             
   COPYR  = (c) Copyright 08Apr2002 Georg Kresse                                                    
   COPYR  = This file is part of the software VASP. Any use, copying, and all other rights are regul
   COPYR  = If you do not have a valid VASP license, you may not use, copy or distribute this file. 
   VRHFIN =Ti: d3 s1                                                                                
   LEXCH  = PE                                                                                      
   EATOM  =    94.7928 eV,    6.9671 Ry                                                             
                                                                                                    
   TITEL  = PAW_PBE Ti 08Apr2002                                                                    
   LULTRA =        F    use ultrasoft PP ?                                                          
   IUNSCR =        1    unscreen: 0-lin 1-nonlin 2-no                                               
   RPACOR =    2.200    partial core radius                                                         
   POMASS =   47.880; ZVAL   =    4.000    mass and valenz                                          
   RCORE  =    2.800    outmost cutoff radius                                                       
   RWIGS  =    2.500; RWIGS  =    1.323    wigner-seitz radius (au A)                               
   ENMAX  =  178.330; ENMIN  =  133.747 eV                                                          
   RCLOC  =    2.215    cutoff for local pot                                                        
   LCOR   =        T    correct aug charges                                                         
   LPAW   =        T    paw PP                                                                      
   EAUG   =  328.883                                                                                
   DEXC   =    0.000                                                                                
   RMAX   =    2.868    core radius for proj-oper                                                   
   RAUG   =    1.300    factor for augmentation sphere                                              
   RDEP   =    2.885    radius for radial grids                                                     
   RDEPT  =    2.320    core radius for aug-charge                                                  
                                                                                                    
   Atomic configuration                                                                             
    9 entries                                                                                       
     n  l   j            E        occ.                                                              
     1  0  0.50     -4865.3608   2.0000                                                             
     2  0  0.50      -533.1367   2.0000                                                             
     2  1  1.50      -440.5031   6.0000                                                             
     3  0  0.50       -59.3186   2.0000                                                             
     3  1  1.50       -35.7012   6.0000                                                             
     3  2  2.50        -1.9157   3.0000                                                             
     4  0  0.50        -3.7291   1.0000                                                             
     4  1  1.50        -4.0817   0.0000                                                             
     4  3  2.50        -1.3606   0.0000                                                             
   Description                                                                                      
     l       E           TYP  RCUT    TYP  RCUT                                                     
     2     -1.9156924     23  2.800                                                                 
     2     -0.4062961     23  2.800                                                                 
     0     -3.7290832     23  2.800                                                                 
     0     20.4087390     23  2.800                                                                 
     1     -5.4423304     23  2.800                                                                 
  local pseudopotential read in
  partial core-charges read in
  partial kinetic energy density read in
  atomic valenz-charges read in
  non local Contribution for L=           2  read in
    real space projection operators read in
  non local Contribution for L=           2  read in
    real space projection operators read in
  non local Contribution for L=           0  read in
    real space projection operators read in
  non local Contribution for L=           0  read in
    real space projection operators read in
  non local Contribution for L=           1  read in
    real space projection operators read in
    PAW grid and wavefunctions read in

   number of l-projection  operators is LMAX  =           5
   number of lm-projection operators is LMMAX =          15

 POTCAR:    PAW_PBE O 08Apr2002                   
   SHA256 =  818f92134a0a090dccd8ba1447fa70422a3b330e708bb4f08108d8ae51209ddf O/POTCAR              
   COPYR  = (c) Copyright 08Apr2002 Georg Kresse                                                    
   COPYR  = This file is part of the software VASP. Any use, copying, and all other rights are regul
   COPYR  = If you do not have a valid VASP license, you may not use, copy or distribute this file. 
   VRHFIN =O: s2p4                                                                                  
   LEXCH  = PE                                                                                      
   EATOM  =   432.3788 eV,   31.7789 Ry                                                             
                                                                                                    
   TITEL  = PAW_PBE O 08Apr2002                                                                     
   LULTRA =        F    use ultrasoft PP ?                                                          
   IUNSCR =        1    unscreen: 0-lin 1-nonlin 2-no                                               
   RPACOR =    1.200    partial core radius                                                         
   POMASS =   16.000; ZVAL   =    6.000    mass and valenz                                          
   RCORE  =    1.520    outmost cutoff radius                                                       
   RWIGS  =    1.550; RWIGS  =    0.820    wigner-seitz radius (au A)                               
   ENMAX  =  400.000; ENMIN  =  300.000 eV                                                          
   ICORE  =        2    local potential                                                             
   LCOR   =        T    correct aug charges                                                         
   LPAW   =        T    paw PP                                                                      
   EAUG   =  605.392                                                                                
   DEXC   =    0.000                                                                                
   RMAX   =    1.553    core radius for proj-oper                                                   
   RAUG   =    1.300    factor for augmentation sphere                                              
   RDEP   =    1.550    radius for radial grids                                                     
   RDEPT  =    1.329    core radius for aug-charge                                                  
                                                                                                    
   Atomic configuration                                                                             
    4 entries                                                                                       
     n  l   j            E        occ.                                                              
     1  0  0.50      -514.6923   2.0000                                                             
     2  0  0.50       -23.9615   2.0000                                                             
     2  1  0.50        -9.0305   4.0000                                                             
     3  2  1.50        -9.5241   0.0000                                                             
   Description                                                                                      
     l       E           TYP  RCUT    TYP  RCUT                                                     
     0    -23.9615318     23  1.200                                                                 
     0     -9.5240782     23  1.200                                                                 
     1     -9.0304911     23  1.520                                                                 
     1      8.1634956     23  1.520                                                                 
     2     -9.5240782      7  1.500                                                                 
  local pseudopotential read in
  partial core-charges read in
  partial kinetic energy density read in
  kinetic energy density of atom read in
  atomic valenz-charges read in
  non local Contribution for L=           0  read in
    real space projection operators read in
  non local Contribution for L=           0  read in
    real space projection operators read in
  non local Contribution for L=           1  read in
    real space projection operators read in
  non local Contribution for L=           1  read in
    real space projection operators read in
    PAW grid and wavefunctions read in

   number of l-projection  operators is LMAX  =           4
   number of lm-projection operators is LMMAX =           8

 -----------------------------------------------------------------------------
|                                                                             |
|               ----> ADVICE to this user running VASP <----                  |
|                                                                             |
|     You have a (more or less) 'large supercell' and for larger cells it     |
|     might be more efficient to use real-space projection operators.         |
|     Therefore, try LREAL= Auto in the INCAR file.                           |
|     Mind: For very accurate calculation, you might also keep the            |
|     reciprocal projection scheme (i.e. LREAL=.FALSE.).                      |
|                                                                             |
 -----------------------------------------------------------------------------

  PAW_PBE Ti 08Apr2002                  :
 energy of atom  1       EATOM=  -94.7928
 kinetic energy error for atom=    0.0002 (will be added to EATOM!!)
  PAW_PBE O 08Apr2002                   :
 energy of atom  2       EATOM= -432.3788
 kinetic energy error for atom=    0.0208 (will be added to EATOM!!)


 POSCAR: Ti  O
  positions in direct lattice
  No initial velocities read in
 -----------------------------------------------------------------------------
|                                                                             |
|           W    W    AA    RRRRR   N    N  II  N    N   GGGG   !!!           |
|           W    W   A  A   R    R  NN   N  II  NN   N  G    G  !!!           |
|           W    W  A    A  R    R  N N  N  II  N N  N  G       !!!           |
|           W WW W  AAAAAA  RRRRR   N  N N  II  N  N N  G  GGG   !            |
|           WW  WW  A    A  R   R   N   NN  II  N   NN  G    G                |
|           W    W  A    A  R    R  N    N  II  N    N   GGGG   !!!           |
|                                                                             |
|     Specifying the vdW parameters                                           |
|     VDW_S8 = 1.195                                                          |
|     VDW_A1 = 0.387                                                          |
|     VDW_A2 = 5.191                                                          |
|     in the INCAR file will overwrite the defaults for hse06. Please         |
|     make sure that is what you intended.                                    |
|                                                                             |
 -----------------------------------------------------------------------------

 exchange correlation table for  LEXCH =        8
   RHO(1)=    0.500       N(1)  =     2000
   RHO(2)=  100.500       N(2)  =     4000



--------------------------------------------------------------------------------------------------------


 ion  position               nearest neighbor table
   1  0.750  0.625  0.287-  81 1.96  82 1.96 141 1.96 142 1.96 163 1.99  84 1.99  11 2.96  31 2.96

   2  0.000  0.750  0.287-  84 1.96 104 1.96 103 1.96  83 1.96  85 1.99  32 2.96  12 2.96
   3  0.000  0.625  0.393-  85 1.96  86 1.96 145 1.96 146 1.96  87 1.99  88 1.99  13 2.96  33 2.96

   4  0.750  0.750  0.393- 168 1.96 188 1.96  87 1.96 107 1.96  89 1.99  82 1.99  14 2.96  34 2.96

   5  0.750  0.625  0.500-  89 1.96  90 1.96 149 1.96 150 1.96 171 1.99  92 1.99  15 2.96  35 2.96

   6  0.000  0.750  0.500-  92 1.96 112 1.96 111 1.96  91 1.96  86 1.99  93 2.00  16 2.96  36 2.96

   7  1.000  0.625  0.604-  93 1.90 153 1.90  95 1.96  96 1.96 154 2.02  94 2.02  17 2.96  37 2.96

   8  0.750  0.750  0.611-  97 1.87 196 1.98 176 1.98  95 1.98 115 1.98  90 2.11  18 2.96  38 2.96

   9  0.750  0.625  0.720-  98 1.83 158 1.84 100 2.04 179 2.04  97 2.10 157 2.10  19 2.96  39 2.96

  10  0.000  0.750  0.709-  94 1.82 119 1.95 120 1.95  99 1.95 100 1.95  20 2.96  40 2.96
  11  0.750  0.875  0.287-  81 1.96  82 1.96 101 1.96 102 1.96 183 1.99 104 1.99   1 2.96  21 2.96

  12  0.000  0.000  0.287- 104 1.96 124 1.96 123 1.96 103 1.96 105 1.99  22 2.96   2 2.96
  13  0.000  0.875  0.393-  85 1.96  86 1.96 105 1.96 106 1.96 107 1.99 108 1.99   3 2.96  23 2.96

  14  0.750  0.000  0.393- 188 1.96 208 1.96 107 1.96 127 1.96 109 1.99 102 1.99   4 2.96  24 2.96

  15  0.750  0.875  0.500-  89 1.96  90 1.96 109 1.96 110 1.96 191 1.99 112 1.99   5 2.96  25 2.96

  16  0.000  0.000  0.500- 112 1.96 132 1.96 131 1.96 111 1.96 106 1.99 113 2.00   6 2.96  26 2.96

  17  1.000  0.875  0.604- 113 1.90  93 1.90 115 1.96 116 1.96 114 2.02  94 2.02  27 2.96   7 2.96

  18  0.750  0.000  0.611- 117 1.87 216 1.98 196 1.98 135 1.98 115 1.98 110 2.11  28 2.96   8 2.96

  19  0.750  0.875  0.720- 118 1.83  98 1.83 199 2.04 120 2.04 117 2.10  97 2.10   9 2.96  29 2.96

  20  1.000  1.000  0.709- 114 1.82 120 1.95 139 1.95 140 1.95 119 1.95  10 2.96  30 2.96
  21  0.750  0.125  0.287- 101 1.96 102 1.96 121 1.96 122 1.96 203 1.99 124 1.99  11 2.96  31 2.96

  22  0.000  0.250  0.287- 124 1.96 144 1.96 143 1.96 123 1.96 125 1.99  32 2.96  12 2.96
  23  0.000  0.125  0.393- 105 1.96 106 1.96 125 1.96 126 1.96 127 1.99 128 1.99  13 2.96  33 2.96

  24  0.750  0.250  0.393- 208 1.96 228 1.96 127 1.96 147 1.96 129 1.99 122 1.99  14 2.96  34 2.96

  25  0.750  0.125  0.500- 109 1.96 110 1.96 129 1.96 130 1.96 211 1.99 132 1.99  15 2.96  35 2.96

  26  0.000  0.250  0.500- 132 1.96 152 1.96 151 1.96 131 1.96 126 1.99 133 2.00  16 2.96  36 2.96

  27  0.000  0.125  0.604- 113 1.90 133 1.90 136 1.96 135 1.96 114 2.02 134 2.02  17 2.96  37 2.96

  28  0.750  0.250  0.611- 137 1.87 216 1.98 236 1.98 155 1.98 135 1.98 130 2.11  18 2.96  38 2.96

  29  0.750  0.125  0.720- 118 1.83 138 1.83 219 2.04 140 2.04 117 2.10 137 2.10  39 2.96  19 2.96

  30  1.000  0.250  0.709- 134 1.82 140 1.95 139 1.95 160 1.95 159 1.95  20 2.96  40 2.96
  31  0.750  0.375  0.287- 121 1.96 122 1.96 141 1.96 142 1.96 223 1.99 144 1.99   1 2.96  21 2.96

  32  0.000  0.500  0.287-  84 1.96 144 1.96 143 1.96  83 1.96 145 1.99  22 2.96   2 2.96
  33  0.000  0.375  0.393- 125 1.96 126 1.96 145 1.96 146 1.96 147 1.99 148 1.99   3 2.96  23 2.96

  34  0.750  0.500  0.393- 168 1.96 228 1.96  87 1.96 147 1.96 142 1.99 149 1.99   4 2.96  24 2.96

  35  0.750  0.375  0.500- 129 1.96 130 1.96 149 1.96 150 1.96 231 1.99 152 1.99   5 2.96  25 2.96

  36  0.000  0.500  0.500-  92 1.96 152 1.96 151 1.96  91 1.96 146 1.99 153 2.00   6 2.96  26 2.96

  37  0.000  0.375  0.604- 133 1.90 153 1.90 156 1.96 155 1.96 154 2.02 134 2.02  27 2.96   7 2.96

  38  0.750  0.500  0.611- 157 1.87 236 1.98 176 1.98 155 1.98  95 1.98 150 2.11  28 2.96   8 2.96

  39  0.750  0.375  0.720- 138 1.83 158 1.84 160 2.04 239 2.04 137 2.10 157 2.10  29 2.96   9 2.96

  40  0.000  0.500  0.709- 154 1.82 159 1.95 100 1.95  99 1.95 160 1.95  10 2.96  30 2.96
  41  0.250  0.625  0.287- 161 1.96 162 1.96 221 1.96 222 1.96  83 1.99 164 1.99  51 2.96  71 2.96

  42  0.500  0.750  0.287- 164 1.96 184 1.96 183 1.96 163 1.96 165 1.99  72 2.96  52 2.96
  43  0.500  0.625  0.393- 165 1.96 166 1.96 225 1.96 226 1.96 167 1.99 168 1.99  53 2.96  73 2.96

  44  0.250  0.750  0.393-  88 1.96 108 1.96 167 1.96 187 1.96 169 1.99 162 1.99  54 2.96  74 2.96

  45  0.250  0.625  0.500- 169 1.96 170 1.96 229 1.96 230 1.96  91 1.99 172 1.99  55 2.96  75 2.96

  46  0.500  0.750  0.500- 172 1.96 192 1.96 191 1.96 171 1.96 166 1.99 173 2.01  56 2.96  76 2.96

  47  0.500  0.625  0.605- 233 1.90 173 1.91 175 1.96 176 1.96 174 2.02 234 2.02  77 2.95  57 2.96

  48  0.250  0.750  0.611- 177 1.87 195 1.98 175 1.98  96 1.98 116 1.98 170 2.11  58 2.96  78 2.96

  49  0.250  0.625  0.720- 178 1.83 238 1.84  99 2.04 180 2.04 177 2.10 237 2.10  59 2.96  79 2.96

  50  0.500  0.750  0.708- 174 1.82 179 1.94 180 1.94 199 1.95 200 1.95  60 2.96  80 2.96
  51  0.250  0.875  0.287- 161 1.96 162 1.96 181 1.96 182 1.96 103 1.99 184 1.99  41 2.96  61 2.96

  52  0.500  0.000  0.287- 184 1.96 204 1.96 203 1.96 183 1.96 185 1.99  62 2.96  42 2.96
  53  0.500  0.875  0.393- 165 1.96 166 1.96 185 1.96 186 1.96 187 1.99 188 1.99  43 2.96  63 2.96

  54  0.250  0.000  0.393- 108 1.96 128 1.96 187 1.96 207 1.96 189 1.99 182 1.99  44 2.96  64 2.96

  55  0.250  0.875  0.500- 169 1.96 170 1.96 189 1.96 190 1.96 111 1.99 192 1.99  45 2.96  65 2.96

  56  0.500  0.000  0.500- 192 1.96 212 1.96 211 1.96 191 1.96 186 1.99 193 2.00  46 2.96  66 2.96

  57  0.500  0.875  0.604- 173 1.90 193 1.90 195 1.96 196 1.96 174 2.01 194 2.02  47 2.96  67 2.97

  58  0.250  1.000  0.611- 197 1.87 195 1.98 215 1.98 116 1.98 136 1.98 190 2.11  48 2.96  68 2.96

  59  0.250  0.875  0.720- 198 1.83 178 1.83 200 2.04 119 2.04 197 2.10 177 2.10  49 2.96  69 2.96

  60  0.500  1.000  0.708- 194 1.82 200 1.95 219 1.95 220 1.95 199 1.95  50 2.96  70 2.96
  61  0.250  0.125  0.287- 181 1.96 182 1.96 201 1.96 202 1.96 123 1.99 204 1.99  51 2.96  71 2.96

  62  0.500  0.250  0.287- 204 1.96 224 1.96 223 1.96 203 1.96 205 1.99  72 2.96  52 2.96
  63  0.500  0.125  0.393- 185 1.96 186 1.96 205 1.96 206 1.96 207 1.99 208 1.99  53 2.96  73 2.96

  64  0.250  0.250  0.393- 128 1.96 148 1.96 207 1.96 227 1.96 209 1.99 202 1.99  54 2.96  74 2.96

  65  0.250  0.125  0.500- 189 1.96 190 1.96 209 1.96 210 1.96 131 1.99 212 1.99  55 2.96  75 2.96

  66  0.500  0.250  0.500- 212 1.96 232 1.96 231 1.96 211 1.96 206 1.99 213 2.01  56 2.96  76 2.96

  67  0.500  0.125  0.604- 213 1.90 193 1.90 216 1.96 215 1.96 214 2.01 194 2.02  77 2.96  57 2.97

  68  0.250  0.250  0.611- 217 1.87 215 1.98 235 1.98 156 1.98 136 1.98 210 2.11  58 2.96  78 2.96

  69  0.250  0.125  0.720- 198 1.83 218 1.83 220 2.04 139 2.04 197 2.10 217 2.10  79 2.96  59 2.96

  70  0.500  0.250  0.708- 214 1.82 240 1.94 239 1.94 220 1.95 219 1.95  60 2.96  80 2.96
  71  0.250  0.375  0.287- 201 1.96 202 1.96 221 1.96 222 1.96 143 1.99 224 1.99  41 2.96  61 2.96

  72  0.500  0.500  0.287- 164 1.96 224 1.96 223 1.96 163 1.96 225 1.99  62 2.96  42 2.96
  73  0.500  0.375  0.393- 205 1.96 206 1.96 225 1.96 226 1.96 227 1.99 228 1.99  43 2.96  63 2.96

  74  0.250  0.500  0.393-  88 1.96 148 1.96 167 1.96 227 1.96 222 1.99 229 1.99  44 2.96  64 2.96

  75  0.250  0.375  0.500- 209 1.96 210 1.96 229 1.96 230 1.96 151 1.99 232 1.99  45 2.96  65 2.96

  76  0.500  0.500  0.500- 172 1.96 232 1.96 231 1.96 171 1.96 226 1.99 233 2.01  46 2.96  66 2.96

  77  0.500  0.375  0.605- 233 1.90 213 1.91 236 1.96 235 1.96 214 2.02 234 2.02  47 2.95  67 2.96

  78  0.250  0.500  0.611- 237 1.87 175 1.98 235 1.98  96 1.98 156 1.98 230 2.11  48 2.96  68 2.96

  79  0.250  0.375  0.720- 218 1.83 238 1.84 159 2.04 240 2.04 217 2.10 237 2.10  69 2.96  49 2.96

  80  0.500  0.500  0.710- 234 1.83 239 1.95 180 1.95 179 1.95 240 1.95  70 2.96  50 2.96
  81  0.750  0.750  0.245-   1 1.96  11 1.96
  82  0.750  0.750  0.328-   1 1.96  11 1.96   4 1.99
  83  0.098  0.625  0.287-   2 1.96  32 1.96  41 1.99
  84  0.902  0.625  0.287-   2 1.96  32 1.96   1 1.99
  85  0.000  0.750  0.352-   3 1.96  13 1.96   2 1.99
  86  0.000  0.750  0.435-   3 1.96  13 1.96   6 1.99
  87  0.848  0.625  0.393-   4 1.96  34 1.96   3 1.99
  88  0.152  0.625  0.393-  44 1.96  74 1.96   3 1.99
  89  0.750  0.750  0.458-   5 1.96  15 1.96   4 1.99
  90  0.750  0.750  0.542-   5 1.96  15 1.96   8 2.11
  91  0.098  0.625  0.500-   6 1.96  36 1.96  45 1.99
  92  0.902  0.625  0.500-   6 1.96  36 1.96   5 1.99
  93  1.000  0.750  0.565-   7 1.90  17 1.90   6 2.00
  94  0.000  0.750  0.649-  10 1.82  17 2.02   7 2.02
  95  0.850  0.625  0.607-   7 1.96   8 1.98  38 1.98
  96  0.150  0.625  0.607-   7 1.96  48 1.98  78 1.98
  97  0.750  0.750  0.672-   8 1.87   9 2.10  19 2.10
  98  0.750  0.750  0.756-   9 1.83  19 1.83
  99  0.094  0.625  0.719-  40 1.95  10 1.95  49 2.04
 100  0.906  0.625  0.719-  40 1.95  10 1.95   9 2.04
 101  0.750  0.000  0.245-  11 1.96  21 1.96
 102  0.750  0.000  0.328-  11 1.96  21 1.96  14 1.99
 103  0.098  0.875  0.287-   2 1.96  12 1.96  51 1.99
 104  0.902  0.875  0.287-   2 1.96  12 1.96  11 1.99
 105  0.000  0.000  0.352-  13 1.96  23 1.96  12 1.99
 106  0.000  0.000  0.435-  13 1.96  23 1.96  16 1.99
 107  0.848  0.875  0.393-   4 1.96  14 1.96  13 1.99
 108  0.152  0.875  0.393-  44 1.96  54 1.96  13 1.99
 109  0.750  0.000  0.458-  15 1.96  25 1.96  14 1.99
 110  0.750  0.000  0.542-  15 1.96  25 1.96  18 2.11
 111  0.098  0.875  0.500-   6 1.96  16 1.96  55 1.99
 112  0.902  0.875  0.500-   6 1.96  16 1.96  15 1.99
 113  0.000  1.000  0.565-  27 1.90  17 1.90  16 2.00
 114  1.000  1.000  0.649-  20 1.82  17 2.02  27 2.02
 115  0.850  0.875  0.607-  17 1.96   8 1.98  18 1.98
 116  0.150  0.875  0.607-  17 1.96  48 1.98  58 1.98
 117  0.750  0.000  0.672-  18 1.87  19 2.10  29 2.10
 118  0.750  0.000  0.756-  19 1.83  29 1.83
 119  0.094  0.875  0.719-  10 1.95  20 1.95  59 2.04
 120  0.906  0.875  0.719-  10 1.95  20 1.95  19 2.04
 121  0.750  0.250  0.245-  21 1.96  31 1.96
 122  0.750  0.250  0.328-  21 1.96  31 1.96  24 1.99
 123  0.098  0.125  0.287-  12 1.96  22 1.96  61 1.99
 124  0.902  0.125  0.287-  12 1.96  22 1.96  21 1.99
 125  0.000  0.250  0.352-  23 1.96  33 1.96  22 1.99
 126  0.000  0.250  0.435-  23 1.96  33 1.96  26 1.99
 127  0.848  0.125  0.393-  14 1.96  24 1.96  23 1.99
 128  0.152  0.125  0.393-  54 1.96  64 1.96  23 1.99
 129  0.750  0.250  0.458-  25 1.96  35 1.96  24 1.99
 130  0.750  0.250  0.542-  25 1.96  35 1.96  28 2.11
 131  0.098  0.125  0.500-  16 1.96  26 1.96  65 1.99
 132  0.902  0.125  0.500-  16 1.96  26 1.96  25 1.99
 133  0.000  0.250  0.565-  37 1.90  27 1.90  26 2.00
 134  1.000  0.250  0.649-  30 1.82  27 2.02  37 2.02
 135  0.850  0.125  0.607-  27 1.96  28 1.98  18 1.98
 136  0.150  0.125  0.607-  27 1.96  68 1.98  58 1.98
 137  0.750  0.250  0.672-  28 1.87  39 2.10  29 2.10
 138  0.750  0.250  0.756-  39 1.83  29 1.83
 139  0.094  0.125  0.719-  30 1.95  20 1.95  69 2.04
 140  0.906  0.125  0.719-  30 1.95  20 1.95  29 2.04
 141  0.750  0.500  0.245-   1 1.96  31 1.96
 142  0.750  0.500  0.328-   1 1.96  31 1.96  34 1.99
 143  0.098  0.375  0.287-  22 1.96  32 1.96  71 1.99
 144  0.902  0.375  0.287-  22 1.96  32 1.96  31 1.99
 145  0.000  0.500  0.352-   3 1.96  33 1.96  32 1.99
 146  0.000  0.500  0.435-   3 1.96  33 1.96  36 1.99
 147  0.848  0.375  0.393-  24 1.96  34 1.96  33 1.99
 148  0.152  0.375  0.393-  64 1.96  74 1.96  33 1.99
 149  0.750  0.500  0.458-   5 1.96  35 1.96  34 1.99
 150  0.750  0.500  0.542-   5 1.96  35 1.96  38 2.11
 151  0.098  0.375  0.500-  26 1.96  36 1.96  75 1.99
 152  0.902  0.375  0.500-  26 1.96  36 1.96  35 1.99
 153  0.000  0.500  0.565-  37 1.90   7 1.90  36 2.00
 154  0.000  0.500  0.649-  40 1.82  37 2.02   7 2.02
 155  0.850  0.375  0.607-  37 1.96  28 1.98  38 1.98
 156  0.150  0.375  0.607-  37 1.96  68 1.98  78 1.98
 157  0.751  0.500  0.672-  38 1.87   9 2.10  39 2.10
 158  0.749  0.500  0.756-  39 1.84   9 1.84
 159  0.094  0.375  0.719-  40 1.95  30 1.95  79 2.04
 160  0.906  0.375  0.719-  40 1.95  30 1.95  39 2.04
 161  0.250  0.750  0.245-  41 1.96  51 1.96
 162  0.250  0.750  0.328-  41 1.96  51 1.96  44 1.99
 163  0.598  0.625  0.287-  42 1.96  72 1.96   1 1.99
 164  0.402  0.625  0.287-  42 1.96  72 1.96  41 1.99
 165  0.500  0.750  0.352-  43 1.96  53 1.96  42 1.99
 166  0.500  0.750  0.435-  43 1.96  53 1.96  46 1.99
 167  0.348  0.625  0.393-  44 1.96  74 1.96  43 1.99
 168  0.652  0.625  0.393-   4 1.96  34 1.96  43 1.99
 169  0.250  0.750  0.458-  45 1.96  55 1.96  44 1.99
 170  0.250  0.750  0.542-  45 1.96  55 1.96  48 2.11
 171  0.598  0.625  0.500-  46 1.96  76 1.96   5 1.99
 172  0.402  0.625  0.500-  46 1.96  76 1.96  45 1.99
 173  0.500  0.750  0.566-  57 1.90  47 1.91  46 2.01
 174  0.500  0.750  0.649-  50 1.82  57 2.01  47 2.02
 175  0.350  0.625  0.607-  47 1.96  78 1.98  48 1.98
 176  0.650  0.625  0.607-  47 1.96  38 1.98   8 1.98
 177  0.250  0.750  0.672-  48 1.87  49 2.10  59 2.10
 178  0.250  0.750  0.756-  49 1.83  59 1.83
 179  0.594  0.626  0.718-  50 1.94  80 1.95   9 2.04
 180  0.406  0.626  0.719-  50 1.94  80 1.95  49 2.04
 181  0.250  0.000  0.245-  51 1.96  61 1.96
 182  0.250  0.000  0.328-  51 1.96  61 1.96  54 1.99
 183  0.598  0.875  0.287-  42 1.96  52 1.96  11 1.99
 184  0.402  0.875  0.287-  42 1.96  52 1.96  51 1.99
 185  0.500  0.000  0.352-  53 1.96  63 1.96  52 1.99
 186  0.500  0.000  0.435-  53 1.96  63 1.96  56 1.99
 187  0.348  0.875  0.393-  44 1.96  54 1.96  53 1.99
 188  0.652  0.875  0.393-   4 1.96  14 1.96  53 1.99
 189  0.250  0.000  0.458-  55 1.96  65 1.96  54 1.99
 190  0.250  0.000  0.542-  55 1.96  65 1.96  58 2.11
 191  0.598  0.875  0.500-  46 1.96  56 1.96  15 1.99
 192  0.402  0.875  0.500-  46 1.96  56 1.96  55 1.99
 193  0.500  1.000  0.565-  67 1.90  57 1.90  56 2.00
 194  0.500  0.000  0.649-  60 1.82  57 2.02  67 2.02
 195  0.350  0.875  0.607-  57 1.96  58 1.98  48 1.98
 196  0.650  0.875  0.607-  57 1.96  18 1.98   8 1.98
 197  0.250  1.000  0.672-  58 1.87  69 2.10  59 2.10
 198  0.250  1.000  0.756-  69 1.83  59 1.83
 199  0.594  0.875  0.719-  60 1.95  50 1.95  19 2.04
 200  0.406  0.875  0.719-  60 1.95  50 1.95  59 2.04
 201  0.250  0.250  0.245-  61 1.96  71 1.96
 202  0.250  0.250  0.328-  61 1.96  71 1.96  64 1.99
 203  0.598  0.125  0.287-  52 1.96  62 1.96  21 1.99
 204  0.402  0.125  0.287-  52 1.96  62 1.96  61 1.99
 205  0.500  0.250  0.352-  63 1.96  73 1.96  62 1.99
 206  0.500  0.250  0.435-  63 1.96  73 1.96  66 1.99
 207  0.348  0.125  0.393-  54 1.96  64 1.96  63 1.99
 208  0.652  0.125  0.393-  14 1.96  24 1.96  63 1.99
 209  0.250  0.250  0.458-  65 1.96  75 1.96  64 1.99
 210  0.250  0.250  0.542-  65 1.96  75 1.96  68 2.11
 211  0.598  0.125  0.500-  56 1.96  66 1.96  25 1.99
 212  0.402  0.125  0.500-  56 1.96  66 1.96  65 1.99
 213  0.500  0.250  0.566-  67 1.90  77 1.91  66 2.01
 214  0.500  0.250  0.649-  70 1.82  67 2.01  77 2.02
 215  0.350  0.125  0.607-  67 1.96  58 1.98  68 1.98
 216  0.650  0.125  0.607-  67 1.96  18 1.98  28 1.98
 217  0.250  0.250  0.672-  68 1.87  79 2.10  69 2.10
 218  0.250  0.250  0.756-  79 1.83  69 1.83
 219  0.594  0.125  0.719-  60 1.95  70 1.95  29 2.04
 220  0.406  0.125  0.719-  60 1.95  70 1.95  69 2.04
 221  0.250  0.500  0.245-  41 1.96  71 1.96
 222  0.250  0.500  0.328-  41 1.96  71 1.96  74 1.99
 223  0.598  0.375  0.287-  62 1.96  72 1.96  31 1.99
 224  0.402  0.375  0.287-  62 1.96  72 1.96  71 1.99
 225  0.500  0.500  0.352-  43 1.96  73 1.96  72 1.99
 226  0.500  0.500  0.435-  43 1.96  73 1.96  76 1.99
 227  0.348  0.375  0.393-  64 1.96  74 1.96  73 1.99
 228  0.652  0.375  0.393-  24 1.96  34 1.96  73 1.99
 229  0.250  0.500  0.458-  45 1.96  75 1.96  74 1.99
 230  0.250  0.500  0.542-  45 1.96  75 1.96  78 2.11
 231  0.598  0.375  0.500-  66 1.96  76 1.96  35 1.99
 232  0.402  0.375  0.500-  66 1.96  76 1.96  75 1.99
 233  0.500  0.500  0.566-  77 1.90  47 1.90  76 2.01
 234  0.500  0.500  0.650-  80 1.83  77 2.02  47 2.02
 235  0.350  0.375  0.607-  77 1.96  78 1.98  68 1.98
 236  0.650  0.375  0.607-  77 1.96  38 1.98  28 1.98
 237  0.249  0.500  0.672-  78 1.87  79 2.10  49 2.10
 238  0.251  0.500  0.756-  49 1.84  79 1.84
 239  0.594  0.374  0.719-  70 1.94  80 1.95  39 2.04
 240  0.406  0.374  0.718-  70 1.94  80 1.95  79 2.04


IMPORTANT INFORMATION: All symmetrisations will be switched off!
NOSYMM: (Re-)initialisation of all symmetry stuff for point group C_1.


----------------------------------------------------------------------------------------

                                     Primitive cell                                     

  volume of cell :    4737.1524

  direct lattice vectors                    reciprocal lattice vectors
    13.061127704  0.000000000  0.000000000     0.076563067  0.000000000  0.000000000
     0.000000000 11.845298948  0.000000000     0.000000000  0.084421677  0.000000000
     0.000000000  0.000000000 30.618975621     0.000000000  0.000000000  0.032659486

  length of vectors
    13.061127704 11.845298948 30.618975621     0.076563067  0.084421677  0.032659486

  position of ions in fractional coordinates (direct lattice)
     0.750000000  0.625000000  0.286715143
     0.000000000  0.750000000  0.286715143
     0.000000000  0.625000000  0.393357571
     0.750000000  0.750000000  0.393357571
     0.750000000  0.625000000  0.500000000
     0.000000000  0.750000000  0.500000000
     0.999999625  0.625015376  0.604444969
     0.750030164  0.750039124  0.610671635
     0.750207450  0.625164804  0.720210052
     0.000022175  0.750121738  0.708568275
     0.750000000  0.875000000  0.286715143
     0.000000000  0.000000000  0.286715143
     0.000000000  0.875000000  0.393357571
     0.750000000  0.000000000  0.393357571
     0.750000000  0.875000000  0.500000000
     0.000000000  0.000000000  0.500000000
     0.999996762  0.875018295  0.604461287
     0.749966535  0.000002502  0.610731719
     0.749856862  0.875049787  0.720416936
     0.999999875  0.999999989  0.708576685
     0.750000000  0.125000000  0.286715143
     0.000000000  0.250000000  0.286715143
     0.000000000  0.125000000  0.393357571
     0.750000000  0.250000000  0.393357571
     0.750000000  0.125000000  0.500000000
     0.000000000  0.250000000  0.500000000
     0.000003328  0.124981688  0.604461284
     0.750029610  0.249962992  0.610681858
     0.749839637  0.124964502  0.720420132
     0.999978510  0.249878242  0.708568270
     0.750000000  0.375000000  0.286715143
     0.000000000  0.500000000  0.286715143
     0.000000000  0.375000000  0.393357571
     0.750000000  0.500000000  0.393357571
     0.750000000  0.375000000  0.500000000
     0.000000000  0.500000000  0.500000000
     0.000000454  0.374984630  0.604444972
     0.750054049  0.499997446  0.610684810
     0.750156935  0.374872934  0.720244024
     0.000000529  0.499999997  0.708549465
     0.250000000  0.625000000  0.286715143
     0.500000000  0.750000000  0.286715143
     0.500000000  0.625000000  0.393357571
     0.250000000  0.750000000  0.393357571
     0.250000000  0.625000000  0.500000000
     0.500000000  0.750000000  0.500000000
     0.499999015  0.624590740  0.604831395
     0.249970471  0.750036919  0.610682017
     0.249844431  0.625126597  0.720244699
     0.500006285  0.750056596  0.708432550
     0.250000000  0.875000000  0.286715143
     0.500000000  0.000000000  0.286715143
     0.500000000  0.875000000  0.393357571
     0.250000000  0.000000000  0.393357571
     0.250000000  0.875000000  0.500000000
     0.500000000  0.000000000  0.500000000
     0.499998080  0.874803564  0.604277912
     0.250033427  0.999997508  0.610731697
     0.250160407  0.875035446  0.720420134
     0.500000036  0.999999948  0.708401382
     0.250000000  0.125000000  0.286715143
     0.500000000  0.250000000  0.286715143
     0.500000000  0.125000000  0.393357571
     0.250000000  0.250000000  0.393357571
     0.250000000  0.125000000  0.500000000
     0.500000000  0.250000000  0.500000000
     0.500001766  0.125196399  0.604277881
     0.249969966  0.249961038  0.610671802
     0.250143144  0.124950226  0.720416889
     0.499993689  0.249943414  0.708432488
     0.250000000  0.375000000  0.286715143
     0.500000000  0.500000000  0.286715143
     0.500000000  0.375000000  0.393357571
     0.250000000  0.500000000  0.393357571
     0.250000000  0.375000000  0.500000000
     0.500000000  0.500000000  0.500000000
     0.500001063  0.375409317  0.604831408
     0.249946083  0.500002571  0.610685065
     0.249793898  0.374835707  0.720210642
     0.500001624  0.499999829  0.709593157
     0.750000000  0.750000000  0.244946144
     0.750000000  0.750000000  0.328484141
     0.097918341  0.625000000  0.286715143
     0.902081659  0.625000000  0.286715143
     0.000000000  0.750000000  0.351588572
     0.000000000  0.750000000  0.435126570
     0.847918341  0.625000000  0.393357571
     0.152081659  0.625000000  0.393357571
     0.750000000  0.750000000  0.458231001
     0.750000000  0.750000000  0.541768999
     0.097918341  0.625000000  0.500000000
     0.902081659  0.625000000  0.500000000
     0.999999900  0.750032945  0.565471076
     0.000004801  0.750007638  0.649223528
     0.850124881  0.625047457  0.607164630
     0.149876456  0.625052484  0.607165541
     0.750368042  0.750181755  0.671772440
     0.749882077  0.749860930  0.755650582
     0.093898920  0.624949304  0.719113374
     0.906119810  0.624962523  0.719103665
     0.750000000  0.000000000  0.244946144
     0.750000000  0.000000000  0.328484141
     0.097918341  0.875000000  0.286715143
     0.902081659  0.875000000  0.286715143
     0.000000000  0.000000000  0.351588572
     0.000000000  0.000000000  0.435126570
     0.847918341  0.875000000  0.393357571
     0.152081659  0.875000000  0.393357571
     0.750000000  0.000000000  0.458231001
     0.750000000  0.000000000  0.541768999
     0.097918341  0.875000000  0.500000000
     0.902081659  0.875000000  0.500000000
     0.000000050  0.999999991  0.565471871
     0.999999974  0.999999995  0.649225155
     0.850108863  0.875055088  0.607189030
     0.149895764  0.875046758  0.607195192
     0.750033745  0.000000734  0.671830460
     0.750150417  0.000001588  0.755718075
     0.093905726  0.874983891  0.719066442
     0.906108610  0.874977469  0.719070733
     0.750000000  0.250000000  0.244946144
     0.750000000  0.250000000  0.328484141
     0.097918341  0.125000000  0.286715143
     0.902081659  0.125000000  0.286715143
     0.000000000  0.250000000  0.351588572
     0.000000000  0.250000000  0.435126570
     0.847918341  0.125000000  0.393357571
     0.152081659  0.125000000  0.393357571
     0.750000000  0.250000000  0.458231001
     0.750000000  0.250000000  0.541768999
     0.097918341  0.125000000  0.500000000
     0.902081659  0.125000000  0.500000000
     0.000000116  0.249967047  0.565471073
     0.999995341  0.249992356  0.649223523
     0.850104257  0.124953044  0.607195126
     0.149891167  0.124945083  0.607189091
     0.750317104  0.249853366  0.671784174
     0.749899249  0.250136068  0.755662199
     0.093891664  0.125022411  0.719070665
     0.906094547  0.125016198  0.719066498
     0.750000000  0.500000000  0.244946144
     0.750000000  0.500000000  0.328484141
     0.097918341  0.375000000  0.286715143
     0.902081659  0.375000000  0.286715143
     0.000000000  0.500000000  0.351588572
     0.000000000  0.500000000  0.435126570
     0.847918341  0.375000000  0.393357571
     0.152081659  0.375000000  0.393357571
     0.750000000  0.500000000  0.458231001
     0.750000000  0.500000000  0.541768999
     0.097918341  0.375000000  0.500000000
     0.902081659  0.375000000  0.500000000
     0.000000021  0.499999998  0.565469045
     0.000000060  0.499999996  0.649208764
     0.850123620  0.374947414  0.607165411
     0.149875216  0.374952635  0.607164762
     0.750544450  0.499979557  0.671746948
     0.749058654  0.500045059  0.755582757
     0.093880949  0.375037570  0.719103784
     0.906101845  0.375050610  0.719113225
     0.250000000  0.750000000  0.244946144
     0.250000000  0.750000000  0.328484141
     0.597918341  0.625000000  0.286715143
     0.402081659  0.625000000  0.286715143
     0.500000000  0.750000000  0.351588572
     0.500000000  0.750000000  0.435126570
     0.347918341  0.625000000  0.393357571
     0.652081659  0.625000000  0.393357571
     0.250000000  0.750000000  0.458231001
     0.250000000  0.750000000  0.541768999
     0.597918341  0.625000000  0.500000000
     0.402081659  0.625000000  0.500000000
     0.500001245  0.749567065  0.565510926
     0.499972928  0.750448639  0.649107304
     0.350001777  0.624995548  0.607330680
     0.649997469  0.625001226  0.607334518
     0.249683958  0.750146089  0.671784322
     0.250100884  0.749864266  0.755662366
     0.594263935  0.625762910  0.718453797
     0.405807508  0.625719287  0.718552639
     0.250000000  0.000000000  0.244946144
     0.250000000  0.000000000  0.328484141
     0.597918341  0.875000000  0.286715143
     0.402081659  0.875000000  0.286715143
     0.500000000  0.000000000  0.351588572
     0.500000000  0.000000000  0.435126570
     0.347918341  0.875000000  0.393357571
     0.652081659  0.875000000  0.393357571
     0.250000000  0.000000000  0.458231001
     0.250000000  0.000000000  0.541768999
     0.597918341  0.875000000  0.500000000
     0.402081659  0.875000000  0.500000000
     0.499999992  0.999999994  0.565382275
     0.500000038  0.000000003  0.649075551
     0.349992066  0.875009555  0.607164665
     0.650004304  0.875006875  0.607165718
     0.249966211  0.999999240  0.671830391
     0.249849731  0.999998361  0.755718015
     0.593954717  0.875166614  0.719044264
     0.406043592  0.875181108  0.719044999
     0.250000000  0.250000000  0.244946144
     0.250000000  0.250000000  0.328484141
     0.597918341  0.125000000  0.286715143
     0.402081659  0.125000000  0.286715143
     0.500000000  0.250000000  0.351588572
     0.500000000  0.250000000  0.435126570
     0.347918341  0.125000000  0.393357571
     0.652081659  0.125000000  0.393357571
     0.250000000  0.250000000  0.458231001
     0.250000000  0.250000000  0.541768999
     0.597918341  0.125000000  0.500000000
     0.402081659  0.125000000  0.500000000
     0.499998751  0.250432962  0.565510930
     0.500026298  0.249551309  0.649107235
     0.349995688  0.124993068  0.607165692
     0.650007905  0.124990495  0.607164689
     0.249632971  0.249818755  0.671772569
     0.250117856  0.250138699  0.755650700
     0.593956576  0.124818931  0.719044989
     0.406045411  0.124833084  0.719044154
     0.250000000  0.500000000  0.244946144
     0.250000000  0.500000000  0.328484141
     0.597918341  0.375000000  0.286715143
     0.402081659  0.375000000  0.286715143
     0.500000000  0.500000000  0.351588572
     0.500000000  0.500000000  0.435126570
     0.347918341  0.375000000  0.393357571
     0.652081659  0.375000000  0.393357571
     0.250000000  0.500000000  0.458231001
     0.250000000  0.500000000  0.541768999
     0.597918341  0.375000000  0.500000000
     0.402081659  0.375000000  0.500000000
     0.500000014  0.499999984  0.565644733
     0.499999795  0.500000019  0.649743789
     0.350002491  0.374998919  0.607334526
     0.649998162  0.375004271  0.607330698
     0.249456338  0.500020426  0.671747354
     0.250942838  0.499955013  0.755583400
     0.594194504  0.374279646  0.718551030
     0.405737963  0.374238058  0.718455073

  ion indices of the primitive-cell ions
   primitive index   ion index
                 1           1
                 2           2
                 3           3
                 4           4
                 5           5
                 6           6
                 7           7
                 8           8
                 9           9
                10          10
                11          11
                12          12
                13          13
                14          14
                15          15
                16          16
                17          17
                18          18
                19          19
                20          20
                21          21
                22          22
                23          23
                24          24
                25          25
                26          26
                27          27
                28          28
                29          29
                30          30
                31          31
                32          32
                33          33
                34          34
                35          35
                36          36
                37          37
                38          38
                39          39
                40          40
                41          41
                42          42
                43          43
                44          44
                45          45
                46          46
                47          47
                48          48
                49          49
                50          50
                51          51
                52          52
                53          53
                54          54
                55          55
                56          56
                57          57
                58          58
                59          59
                60          60
                61          61
                62          62
                63          63
                64          64
                65          65
                66          66
                67          67
                68          68
                69          69
                70          70
                71          71
                72          72
                73          73
                74          74
                75          75
                76          76
                77          77
                78          78
                79          79
                80          80
                81          81
                82          82
                83          83
                84          84
                85          85
                86          86
                87          87
                88          88
                89          89
                90          90
                91          91
                92          92
                93          93
                94          94
                95          95
                96          96
                97          97
                98          98
                99          99
               100         100
               101         101
               102         102
               103         103
               104         104
               105         105
               106         106
               107         107
               108         108
               109         109
               110         110
               111         111
               112         112
               113         113
               114         114
               115         115
               116         116
               117         117
               118         118
               119         119
               120         120
               121         121
               122         122
               123         123
               124         124
               125         125
               126         126
               127         127
               128         128
               129         129
               130         130
               131         131
               132         132
               133         133
               134         134
               135         135
               136         136
               137         137
               138         138
               139         139
               140         140
               141         141
               142         142
               143         143
               144         144
               145         145
               146         146
               147         147
               148         148
               149         149
               150         150
               151         151
               152         152
               153         153
               154         154
               155         155
               156         156
               157         157
               158         158
               159         159
               160         160
               161         161
               162         162
               163         163
               164         164
               165         165
               166         166
               167         167
               168         168
               169         169
               170         170
               171         171
               172         172
               173         173
               174         174
               175         175
               176         176
               177         177
               178         178
               179         179
               180         180
               181         181
               182         182
               183         183
               184         184
               185         185
               186         186
               187         187
               188         188
               189         189
               190         190
               191         191
               192         192
               193         193
               194         194
               195         195
               196         196
               197         197
               198         198
               199         199
               200         200
               201         201
               202         202
               203         203
               204         204
               205         205
               206         206
               207         207
               208         208
               209         209
               210         210
               211         211
               212         212
               213         213
               214         214
               215         215
               216         216
               217         217
               218         218
               219         219
               220         220
               221         221
               222         222
               223         223
               224         224
               225         225
               226         226
               227         227
               228         228
               229         229
               230         230
               231         231
               232         232
               233         233
               234         234
               235         235
               236         236
               237         237
               238         238
               239         239
               240         240

----------------------------------------------------------------------------------------



 KPOINTS: pymatgen v2020.8.13 with grid density = 

Automatic generation of k-mesh.
 Grid dimensions read from file:
 generate k-points for:    2    2    1

 Generating k-lattice:

  Cartesian coordinates                     Fractional coordinates (reciprocal lattice)
     0.038281534  0.000000000  0.000000000     0.500000000  0.000000000  0.000000000
     0.000000000  0.042210838  0.000000000     0.000000000  0.500000000  0.000000000
     0.000000000  0.000000000  0.032659486     0.000000000  0.000000000  1.000000000

  Length of vectors
     0.038281534  0.042210838  0.032659486

  Shift w.r.t. Gamma in fractional coordinates (k-lattice)
     0.000000000  0.000000000  0.000000000

 
 Subroutine IBZKPT returns following result:
 ===========================================
 
 Found      4 irreducible k-points:
 
 Following reciprocal coordinates:
            Coordinates               Weight
  0.000000  0.000000  0.000000      1.000000
  0.500000  0.000000  0.000000      1.000000
  0.000000  0.500000  0.000000      1.000000
  0.500000  0.500000  0.000000      1.000000
 
 Following cartesian coordinates:
            Coordinates               Weight
  0.000000  0.000000  0.000000      1.000000
  0.038282  0.000000  0.000000      1.000000
  0.000000  0.042211  0.000000      1.000000
  0.038282  0.042211  0.000000      1.000000
 
 
 Subroutine IBZKPT_HF returns following result:
 ==============================================
 
 Found      4 k-points in 1st BZ
 the following      4 k-points will be used (e.g. in the exchange kernel)
 Following reciprocal coordinates:   # in IRBZ
  0.000000  0.000000  0.000000    0.25000000   1 t-inv F
  0.500000  0.000000  0.000000    0.25000000   2 t-inv F
  0.000000  0.500000  0.000000    0.25000000   3 t-inv F
  0.500000  0.500000  0.000000    0.25000000   4 t-inv F


--------------------------------------------------------------------------------------------------------




 Dimension of arrays:
   k-points           NKPTS =      4   k-points in BZ     NKDIM =      4   number of bands    NBANDS=    768
   number of dos      NEDOS =    301   number of ions     NIONS =    240
   non local maximal  LDIM  =      5   non local SUM 2l+1 LMDIM =     15
   total plane-waves  NPLWV = ******
   max r-space proj   IRMAX =      1   max aug-charges    IRDMAX=  14894
   dimension x,y,z NGX =    80 NGY =   70 NGZ =  180
   dimension x,y,z NGXF=   160 NGYF=  140 NGZF=  360
   support grid    NGXF=   160 NGYF=  140 NGZF=  360
   ions per type =              80 160
   NGX,Y,Z   is equivalent  to a cutoff of  10.18,  9.82,  9.77 a.u.
   NGXF,Y,Z  is equivalent  to a cutoff of  20.37, 19.65, 19.55 a.u.

 SYSTEM =  TiO2                                    
 POSCAR =  Ti  O                                   

--------------------------------------------------------------------------------------------------------


  energy-cutoff  :      520.00
  volume of cell :     4737.15
      direct lattice vectors                 reciprocal lattice vectors
    13.061127704  0.000000000  0.000000000     0.076563067  0.000000000  0.000000000
     0.000000000 11.845298948  0.000000000     0.000000000  0.084421677  0.000000000
     0.000000000  0.000000000 30.618975621     0.000000000  0.000000000  0.032659486

  length of vectors
    13.061127704 11.845298948 30.618975621     0.076563067  0.084421677  0.032659486



 k-points in units of 2pi/SCALE and weight: pymatgen v2020.8.13 with grid density = 
   0.00000000  0.00000000  0.00000000       0.250
   0.03828153  0.00000000  0.00000000       0.250
   0.00000000  0.04221084  0.00000000       0.250
   0.03828153  0.04221084  0.00000000       0.250

 k-points in reciprocal lattice and weights: pymatgen v2020.8.13 with grid density = 
   0.00000000  0.00000000  0.00000000       0.250
   0.50000000  0.00000000  0.00000000       0.250
   0.00000000  0.50000000  0.00000000       0.250
   0.50000000  0.50000000  0.00000000       0.250

 position of ions in fractional coordinates (direct lattice) 
   0.75000000  0.62500000  0.28671514
   0.00000000  0.75000000  0.28671514
   0.00000000  0.62500000  0.39335757
   0.75000000  0.75000000  0.39335757
   0.75000000  0.62500000  0.50000000
   0.00000000  0.75000000  0.50000000
   0.99999963  0.62501538  0.60444497
   0.75003016  0.75003912  0.61067164
   0.75020745  0.62516480  0.72021005
   0.00002218  0.75012174  0.70856827
   0.75000000  0.87500000  0.28671514
   0.00000000  0.00000000  0.28671514
   0.00000000  0.87500000  0.39335757
   0.75000000  0.00000000  0.39335757
   0.75000000  0.87500000  0.50000000
   0.00000000  0.00000000  0.50000000
   0.99999676  0.87501830  0.60446129
   0.74996653  0.00000250  0.61073172
   0.74985686  0.87504979  0.72041694
   0.99999987  0.99999999  0.70857669
   0.75000000  0.12500000  0.28671514
   0.00000000  0.25000000  0.28671514
   0.00000000  0.12500000  0.39335757
   0.75000000  0.25000000  0.39335757
   0.75000000  0.12500000  0.50000000
   0.00000000  0.25000000  0.50000000
   0.00000333  0.12498169  0.60446128
   0.75002961  0.24996299  0.61068186
   0.74983964  0.12496450  0.72042013
   0.99997851  0.24987824  0.70856827
   0.75000000  0.37500000  0.28671514
   0.00000000  0.50000000  0.28671514
   0.00000000  0.37500000  0.39335757
   0.75000000  0.50000000  0.39335757
   0.75000000  0.37500000  0.50000000
   0.00000000  0.50000000  0.50000000
   0.00000045  0.37498463  0.60444497
   0.75005405  0.49999745  0.61068481
   0.75015694  0.37487293  0.72024402
   0.00000053  0.50000000  0.70854947
   0.25000000  0.62500000  0.28671514
   0.50000000  0.75000000  0.28671514
   0.50000000  0.62500000  0.39335757
   0.25000000  0.75000000  0.39335757
   0.25000000  0.62500000  0.50000000
   0.50000000  0.75000000  0.50000000
   0.49999901  0.62459074  0.60483140
   0.24997047  0.75003692  0.61068202
   0.24984443  0.62512660  0.72024470
   0.50000628  0.75005660  0.70843255
   0.25000000  0.87500000  0.28671514
   0.50000000  0.00000000  0.28671514
   0.50000000  0.87500000  0.39335757
   0.25000000  0.00000000  0.39335757
   0.25000000  0.87500000  0.50000000
   0.50000000  0.00000000  0.50000000
   0.49999808  0.87480356  0.60427791
   0.25003343  0.99999751  0.61073170
   0.25016041  0.87503545  0.72042013
   0.50000004  0.99999995  0.70840138
   0.25000000  0.12500000  0.28671514
   0.50000000  0.25000000  0.28671514
   0.50000000  0.12500000  0.39335757
   0.25000000  0.25000000  0.39335757
   0.25000000  0.12500000  0.50000000
   0.50000000  0.25000000  0.50000000
   0.50000177  0.12519640  0.60427788
   0.24996997  0.24996104  0.61067180
   0.25014314  0.12495023  0.72041689
   0.49999369  0.24994341  0.70843249
   0.25000000  0.37500000  0.28671514
   0.50000000  0.50000000  0.28671514
   0.50000000  0.37500000  0.39335757
   0.25000000  0.50000000  0.39335757
   0.25000000  0.37500000  0.50000000
   0.50000000  0.50000000  0.50000000
   0.50000106  0.37540932  0.60483141
   0.24994608  0.50000257  0.61068506
   0.24979390  0.37483571  0.72021064
   0.50000162  0.49999983  0.70959316
   0.75000000  0.75000000  0.24494614
   0.75000000  0.75000000  0.32848414
   0.09791834  0.62500000  0.28671514
   0.90208166  0.62500000  0.28671514
   0.00000000  0.75000000  0.35158857
   0.00000000  0.75000000  0.43512657
   0.84791834  0.62500000  0.39335757
   0.15208166  0.62500000  0.39335757
   0.75000000  0.75000000  0.45823100
   0.75000000  0.75000000  0.54176900
   0.09791834  0.62500000  0.50000000
   0.90208166  0.62500000  0.50000000
   0.99999990  0.75003295  0.56547108
   0.00000480  0.75000764  0.64922353
   0.85012488  0.62504746  0.60716463
   0.14987646  0.62505248  0.60716554
   0.75036804  0.75018176  0.67177244
   0.74988208  0.74986093  0.75565058
   0.09389892  0.62494930  0.71911337
   0.90611981  0.62496252  0.71910366
   0.75000000  0.00000000  0.24494614
   0.75000000  0.00000000  0.32848414
   0.09791834  0.87500000  0.28671514
   0.90208166  0.87500000  0.28671514
   0.00000000  0.00000000  0.35158857
   0.00000000  0.00000000  0.43512657
   0.84791834  0.87500000  0.39335757
   0.15208166  0.87500000  0.39335757
   0.75000000  0.00000000  0.45823100
   0.75000000  0.00000000  0.54176900
   0.09791834  0.87500000  0.50000000
   0.90208166  0.87500000  0.50000000
   0.00000005  0.99999999  0.56547187
   0.99999997  0.99999999  0.64922516
   0.85010886  0.87505509  0.60718903
   0.14989576  0.87504676  0.60719519
   0.75003375  0.00000073  0.67183046
   0.75015042  0.00000159  0.75571808
   0.09390573  0.87498389  0.71906644
   0.90610861  0.87497747  0.71907073
   0.75000000  0.25000000  0.24494614
   0.75000000  0.25000000  0.32848414
   0.09791834  0.12500000  0.28671514
   0.90208166  0.12500000  0.28671514
   0.00000000  0.25000000  0.35158857
   0.00000000  0.25000000  0.43512657
   0.84791834  0.12500000  0.39335757
   0.15208166  0.12500000  0.39335757
   0.75000000  0.25000000  0.45823100
   0.75000000  0.25000000  0.54176900
   0.09791834  0.12500000  0.50000000
   0.90208166  0.12500000  0.50000000
   0.00000012  0.24996705  0.56547107
   0.99999534  0.24999236  0.64922352
   0.85010426  0.12495304  0.60719513
   0.14989117  0.12494508  0.60718909
   0.75031710  0.24985337  0.67178417
   0.74989925  0.25013607  0.75566220
   0.09389166  0.12502241  0.71907067
   0.90609455  0.12501620  0.71906650
   0.75000000  0.50000000  0.24494614
   0.75000000  0.50000000  0.32848414
   0.09791834  0.37500000  0.28671514
   0.90208166  0.37500000  0.28671514
   0.00000000  0.50000000  0.35158857
   0.00000000  0.50000000  0.43512657
   0.84791834  0.37500000  0.39335757
   0.15208166  0.37500000  0.39335757
   0.75000000  0.50000000  0.45823100
   0.75000000  0.50000000  0.54176900
   0.09791834  0.37500000  0.50000000
   0.90208166  0.37500000  0.50000000
   0.00000002  0.50000000  0.56546904
   0.00000006  0.50000000  0.64920876
   0.85012362  0.37494741  0.60716541
   0.14987522  0.37495263  0.60716476
   0.75054445  0.49997956  0.67174695
   0.74905865  0.50004506  0.75558276
   0.09388095  0.37503757  0.71910378
   0.90610185  0.37505061  0.71911322
   0.25000000  0.75000000  0.24494614
   0.25000000  0.75000000  0.32848414
   0.59791834  0.62500000  0.28671514
   0.40208166  0.62500000  0.28671514
   0.50000000  0.75000000  0.35158857
   0.50000000  0.75000000  0.43512657
   0.34791834  0.62500000  0.39335757
   0.65208166  0.62500000  0.39335757
   0.25000000  0.75000000  0.45823100
   0.25000000  0.75000000  0.54176900
   0.59791834  0.62500000  0.50000000
   0.40208166  0.62500000  0.50000000
   0.50000125  0.74956707  0.56551093
   0.49997293  0.75044864  0.64910730
   0.35000178  0.62499555  0.60733068
   0.64999747  0.62500123  0.60733452
   0.24968396  0.75014609  0.67178432
   0.25010088  0.74986427  0.75566237
   0.59426394  0.62576291  0.71845380
   0.40580751  0.62571929  0.71855264
   0.25000000  0.00000000  0.24494614
   0.25000000  0.00000000  0.32848414
   0.59791834  0.87500000  0.28671514
   0.40208166  0.87500000  0.28671514
   0.50000000  0.00000000  0.35158857
   0.50000000  0.00000000  0.43512657
   0.34791834  0.87500000  0.39335757
   0.65208166  0.87500000  0.39335757
   0.25000000  0.00000000  0.45823100
   0.25000000  0.00000000  0.54176900
   0.59791834  0.87500000  0.50000000
   0.40208166  0.87500000  0.50000000
   0.49999999  0.99999999  0.56538228
   0.50000004  0.00000000  0.64907555
   0.34999207  0.87500955  0.60716466
   0.65000430  0.87500688  0.60716572
   0.24996621  0.99999924  0.67183039
   0.24984973  0.99999836  0.75571801
   0.59395472  0.87516661  0.71904426
   0.40604359  0.87518111  0.71904500
   0.25000000  0.25000000  0.24494614
   0.25000000  0.25000000  0.32848414
   0.59791834  0.12500000  0.28671514
   0.40208166  0.12500000  0.28671514
   0.50000000  0.25000000  0.35158857
   0.50000000  0.25000000  0.43512657
   0.34791834  0.12500000  0.39335757
   0.65208166  0.12500000  0.39335757
   0.25000000  0.25000000  0.45823100
   0.25000000  0.25000000  0.54176900
   0.59791834  0.12500000  0.50000000
   0.40208166  0.12500000  0.50000000
   0.49999875  0.25043296  0.56551093
   0.50002630  0.24955131  0.64910724
   0.34999569  0.12499307  0.60716569
   0.65000790  0.12499050  0.60716469
   0.24963297  0.24981876  0.67177257
   0.25011786  0.25013870  0.75565070
   0.59395658  0.12481893  0.71904499
   0.40604541  0.12483308  0.71904415
   0.25000000  0.50000000  0.24494614
   0.25000000  0.50000000  0.32848414
   0.59791834  0.37500000  0.28671514
   0.40208166  0.37500000  0.28671514
   0.50000000  0.50000000  0.35158857
   0.50000000  0.50000000  0.43512657
   0.34791834  0.37500000  0.39335757
   0.65208166  0.37500000  0.39335757
   0.25000000  0.50000000  0.45823100
   0.25000000  0.50000000  0.54176900
   0.59791834  0.37500000  0.50000000
   0.40208166  0.37500000  0.50000000
   0.50000001  0.49999998  0.56564473
   0.49999979  0.50000002  0.64974379
   0.35000249  0.37499892  0.60733453
   0.64999816  0.37500427  0.60733070
   0.24945634  0.50002043  0.67174735
   0.25094284  0.49995501  0.75558340
   0.59419450  0.37427965  0.71855103
   0.40573796  0.37423806  0.71845507

 position of ions in cartesian coordinates  (Angst):
   9.79584578  7.40331184  8.77892396
   0.00000000  8.88397421  8.77892396
   0.00000000  7.40331184 12.04420588
   9.79584578  8.88397421 12.04420588
   9.79584578  7.40331184 15.30948781
   0.00000000  8.88397421 15.30948781
  13.06112281  7.40349398 18.50748577
   9.79623975  8.88443765 18.69813991
   9.79855531  7.40526400 22.05209402
   0.00028964  8.88541624 21.69563473
   9.79584578 10.36463658  8.77892396
   0.00000000  0.00000000  8.77892396
   0.00000000 10.36463658 12.04420588
   9.79584578  0.00000000 12.04420588
   9.79584578 10.36463658 15.30948781
   0.00000000  0.00000000 15.30948781
  13.06108541 10.36485329 18.50798540
   9.79540868  0.00002964 18.69997961
   9.79397623 10.36522633 22.05842860
  13.06112607 11.84529881 21.69589225
   9.79584578  1.48066237  8.77892396
   0.00000000  2.96132474  8.77892396
   0.00000000  1.48066237 12.04420588
   9.79584578  2.96132474 12.04420588
   9.79584578  1.48066237 15.30948781
   0.00000000  2.96132474 15.30948781
   0.00004347  1.48044546 18.50798531
   9.79623252  2.96088636 18.69845292
   9.79375126  1.48024188 22.05852646
  13.06084701  2.95988248 21.69563457
   9.79584578  4.44198711  8.77892396
   0.00000000  5.92264947  8.77892396
   0.00000000  4.44198711 12.04420588
   9.79584578  5.92264947 12.04420588
   9.79584578  4.44198711 15.30948781
   0.00000000  5.92264947 15.30948781
   0.00000593  4.44180504 18.50748587
   9.79655172  5.92261922 18.69854332
   9.79789553  4.44048197 22.05313423
   0.00000691  5.92264943 21.69505880
   3.26528193  7.40331184  8.77892396
   6.53056385  8.88397421  8.77892396
   6.53056385  7.40331184 12.04420588
   3.26528193  8.88397421 12.04420588
   3.26528193  7.40331184 15.30948781
   6.53056385  8.88397421 15.30948781
   6.53055098  7.39846403 18.51931774
   3.26489624  8.88441153 18.69845779
   3.26325002  7.40481142 22.05315487
   6.53064594  8.88464460 21.69147896
   3.26528193 10.36463658  8.77892396
   6.53056385  0.00000000  8.77892396
   6.53056385 10.36463658 12.04420588
   3.26528193  0.00000000 12.04420588
   3.26528193 10.36463658 15.30948781
   6.53056385  0.00000000 15.30948781
   6.53053877 10.36230974 18.50237067
   3.26571852 11.84526943 18.69997893
   3.26737702 10.36505645 22.05852653
   6.53056433 11.84529833 21.69052464
   3.26528193  1.48066237  8.77892396
   6.53056385  2.96132474  8.77892396
   6.53056385  1.48066237 12.04420588
   3.26528193  2.96132474 12.04420588
   3.26528193  1.48066237 15.30948781
   6.53056385  2.96132474 15.30948781
   6.53058692  1.48298878 18.50236972
   3.26488965  2.96086322 18.69814502
   3.26715155  1.48007278 22.05842716
   6.53048142  2.96065446 21.69147709
   3.26528193  4.44198711  8.77892396
   6.53056385  5.92264947  8.77892396
   6.53056385  4.44198711 12.04420588
   3.26528193  5.92264947 12.04420588
   3.26528193  4.44198711 15.30948781
   6.53056385  5.92264947 15.30948781
   6.53057773  4.44683559 18.51931814
   3.26457770  5.92267992 18.69855110
   3.26259000  4.44004100 22.05211208
   6.53058506  5.92264744 21.72701559
   9.79584578  8.88397421  7.50000000
   9.79584578  8.88397421 10.05784792
   1.27892396  7.40331184  8.77892396
  11.78220374  7.40331184  8.77892396
   0.00000000  8.88397421 10.76528193
   0.00000000  8.88397421 13.32312984
  11.07476974  7.40331184 12.04420588
   1.98635797  7.40331184 12.04420588
   9.79584578  8.88397421 14.03056385
   9.79584578  8.88397421 16.58841177
   1.27892396  7.40331184 15.30948781
  11.78220374  7.40331184 15.30948781
  13.06112640  8.88436446 17.31414509
   0.00006270  8.88406469 19.87855938
  11.10358963  7.40387399 18.59075902
   1.95755553  7.40393353 18.59078689
   9.80065282  8.88612715 20.56898397
   9.79430557  8.88232688 23.13724674
   1.22642579  7.40271133 22.01851485
  11.83494655  7.40286792 22.01821758
   9.79584578  0.00000000  7.50000000
   9.79584578  0.00000000 10.05784792
   1.27892396 10.36463658  8.77892396
  11.78220374 10.36463658  8.77892396
   0.00000000  0.00000000 10.76528193
   0.00000000  0.00000000 13.32312984
  11.07476974 10.36463658 12.04420588
   1.98635797 10.36463658 12.04420588
   9.79584578  0.00000000 14.03056385
   9.79584578  0.00000000 16.58841177
   1.27892396 10.36463658 15.30948781
  11.78220374 10.36463658 15.30948781
   0.00000066 11.84529884 17.31416942
  13.06112736 11.84529889 19.87860919
  11.10338043 10.36528911 18.59150610
   1.95780771 10.36519044 18.59169477
   9.79628653  0.00000870 20.57076049
   9.79781039  0.00001881 23.13931333
   1.22651468 10.36444577 22.01707784
  11.83480027 10.36436969 22.01720924
   9.79584578  2.96132474  7.50000000
   9.79584578  2.96132474 10.05784792
   1.27892396  1.48066237  8.77892396
  11.78220374  1.48066237  8.77892396
   0.00000000  2.96132474 10.76528193
   0.00000000  2.96132474 13.32312984
  11.07476974  1.48066237 12.04420588
   1.98635797  1.48066237 12.04420588
   9.79584578  2.96132474 14.03056385
   9.79584578  2.96132474 16.58841177
   1.27892396  1.48066237 15.30948781
  11.78220374  1.48066237 15.30948781
   0.00000152  2.96093440 17.31414500
  13.06106686  2.96123419 19.87855921
  11.10332026  1.48010616 18.59169275
   1.95774768  1.48001187 18.59150799
   9.79998752  2.95958781 20.56934324
   9.79452985  2.96293650 23.13760244
   1.22633101  1.48092783 22.01720716
  11.83461659  1.48085424 22.01707958
   9.79584578  5.92264947  7.50000000
   9.79584578  5.92264947 10.05784792
   1.27892396  4.44198711  8.77892396
  11.78220374  4.44198711  8.77892396
   0.00000000  5.92264947 10.76528193
   0.00000000  5.92264947 13.32312984
  11.07476974  4.44198711 12.04420588
   1.98635797  4.44198711 12.04420588
   9.79584578  5.92264947 14.03056385
   9.79584578  5.92264947 16.58841177
   1.27892396  4.44198711 15.30948781
  11.78220374  4.44198711 15.30948781
   0.00000027  5.92264946 17.31408290
   0.00000079  5.92264943 19.87810731
  11.10357317  4.44136421 18.59078290
   1.95753933  4.44142605 18.59076306
   9.80295691  5.92240732 20.56820343
   9.78355073  5.92318321 23.13517002
   1.22619107  4.44243213 22.01822122
  11.83471191  4.44258660 22.01851030
   3.26528193  8.88397421  7.50000000
   3.26528193  8.88397421 10.05784792
   7.80948781  7.40331184  8.77892396
   5.25163989  7.40331184  8.77892396
   6.53056385  8.88397421 10.76528193
   6.53056385  8.88397421 13.32312984
   4.54420588  7.40331184 12.04420588
   8.51692182  7.40331184 12.04420588
   3.26528193  8.88397421 14.03056385
   3.26528193  8.88397421 16.58841177
   7.80948781  7.40331184 15.30948781
   5.25163989  7.40331184 15.30948781
   6.53058012  8.87884597 17.31536525
   6.53021026  8.88928848 19.87500073
   4.57141791  7.40325911 18.59584328
   8.48969995  7.40332636 18.59596079
   3.26115406  8.88570468 20.56934778
   3.26659959  8.88236640 23.13760757
   7.76175715  7.41234873 21.99831928
   5.30030368  7.41183201 22.00134574
   3.26528193  0.00000000  7.50000000
   3.26528193  0.00000000 10.05784792
   7.80948781 10.36463658  8.77892396
   5.25163989 10.36463658  8.77892396
   6.53056385  0.00000000 10.76528193
   6.53056385  0.00000000 13.32312984
   4.54420588 10.36463658 12.04420588
   8.51692182 10.36463658 12.04420588
   3.26528193  0.00000000 14.03056385
   3.26528193  0.00000000 16.58841177
   7.80948781 10.36463658 15.30948781
   5.25163989 10.36463658 15.30948781
   6.53056375 11.84529888 17.31142610
   6.53056435  0.00000004 19.87402846
   4.57129107 10.36474976 18.59076007
   8.48978923 10.36471802 18.59079233
   3.26484060 11.84528994 20.57075835
   3.26331925 11.84527954 23.13931147
   7.75771841 10.36661017 22.01639879
   5.30338721 10.36678186 22.01642129
   3.26528193  2.96132474  7.50000000
   3.26528193  2.96132474 10.05784792
   7.80948781  1.48066237  8.77892396
   5.25163989  1.48066237  8.77892396
   6.53056385  2.96132474 10.76528193
   6.53056385  2.96132474 13.32312984
   4.54420588  1.48066237 12.04420588
   8.51692182  1.48066237 12.04420588
   3.26528193  2.96132474 14.03056385
   3.26528193  2.96132474 16.58841177
   7.80948781  1.48066237 15.30948781
   5.25163989  1.48066237 15.30948781
   6.53054754  2.96645331 17.31536539
   6.53090734  2.95600985 19.87499861
   4.57133838  1.48058026 18.59079153
   8.48983626  1.48054978 18.59076081
   3.26048811  2.95917784 20.56898792
   3.26682126  2.96296766 23.13725035
   7.75774269  1.47851755 22.01642098
   5.30341096  1.47868520 22.01639542
   3.26528193  5.92264947  7.50000000
   3.26528193  5.92264947 10.05784792
   7.80948781  4.44198711  8.77892396
   5.25163989  4.44198711  8.77892396
   6.53056385  5.92264947 10.76528193
   6.53056385  5.92264947 13.32312984
   4.54420588  4.44198711 12.04420588
   8.51692182  4.44198711 12.04420588
   3.26528193  5.92264947 14.03056385
   3.26528193  5.92264947 16.58841177
   7.80948781  4.44198711 15.30948781
   5.25163989  4.44198711 15.30948781
   6.53056403  5.92264929 17.31946228
   6.53056117  5.92264970 19.89448924
   4.57142723  4.44197430 18.59596106
   8.48970900  4.44203770 18.59584384
   3.25818108  5.92289143 20.56821584
   3.27759645  5.92211659 23.13518970
   7.76085029  4.43345430 22.00129646
   5.29939534  4.43296167 21.99835837



--------------------------------------------------------------------------------------------------------

--------------------------------------- Iteration      FINAL  ---------------------------------------


--------------------OUTCAR has been truncated-------------------------


--------------------OUTCAR has been truncated-------------------------


--------------------OUTCAR has been truncated-------------------------


--------------------OUTCAR has been truncated-------------------------


--------------------OUTCAR has been truncated-------------------------


--------------------OUTCAR has been truncated-------------------------


--------------------OUTCAR has been truncated-------------------------


--------------------OUTCAR has been truncated-------------------------


--------------------OUTCAR has been truncated-------------------------


--------------------OUTCAR has been truncated-------------------------


    FORVDW:  cpu time     53.8242: real time     57.4841

  FORCE on cell =-STRESS in cart. coord.  units (eV):
  Direction    XX          YY          ZZ          XY          YZ          ZX
  --------------------------------------------------------------------------------------
  Alpha Z  2905.76582  2905.76582  2905.76582
  Ewald  511111.13963516405.63942************    -0.05812    -0.00015    -0.00013
  Hartree532152.25904533582.69434************     0.00819     0.00010    -0.00038
  E(xc)   -4627.97814 -4676.38006 -4629.03541     0.00169    -0.00001     0.00009
  Local  ************************************     0.04327    -0.00012    -0.00099
  n-local -2905.54708 -2806.42693 -2961.07692    -0.00452    -0.00012    -0.00019
  augment  1337.98796  1318.55715  1342.67096    -0.00000     0.00004     0.00010
  Kinetic 23306.06931 22773.22219 23362.99828     0.00442     0.00013     0.00156
  Fock    -2119.19632 -2144.37737 -2121.71447     0.00079    -0.00003    -0.00011
  vdW       -48.52841   -48.43618   -42.31452     0.00009     0.00000    -0.00000
  -------------------------------------------------------------------------------------
  Total     -90.96402  -158.86808  -120.58325    -0.00418    -0.00015    -0.00004
  in kB     -30.76542   -53.73161   -40.78310    -0.00141    -0.00005    -0.00001
  external pressure =      -41.76 kB  Pullay stress =        0.00 kB


 VOLUME and BASIS-vectors are now :
 -----------------------------------------------------------------------------
  energy-cutoff  :      520.00
  volume of cell :     4737.15
      direct lattice vectors                 reciprocal lattice vectors
    13.061127704  0.000000000  0.000000000     0.076563067  0.000000000  0.000000000
     0.000000000 11.845298948  0.000000000     0.000000000  0.084421677  0.000000000
     0.000000000  0.000000000 30.618975621     0.000000000  0.000000000  0.032659486

  length of vectors
    13.061127704 11.845298948 30.618975621     0.076563067  0.084421677  0.032659486


 FORCES acting on ions:
    Electron-Ion                     Ewald-Force                    Non-Local-Force
 -----------------------------------------------------------------------------------------------
   0.622E-02 0.213E-02 0.109E+04   -.604E-02 -.229E-02 -.109E+04   0.331E-04 0.805E-04 -.118E+01
   -.104E-04 0.232E-02 0.116E+04   0.195E-04 -.231E-02 -.116E+04   -.733E-05 0.555E-04 -.174E+01
   -.119E-03 0.625E-02 0.557E+03   0.143E-03 -.614E-02 -.556E+03   0.632E-07 0.689E-04 0.170E+00
   0.258E-01 0.174E-01 0.553E+03   -.256E-01 -.170E-01 -.554E+03   0.332E-04 0.239E-03 -.156E+00
   0.172E+00 0.616E-01 -.479E+01   -.173E+00 -.615E-01 0.529E+01   -.340E-03 0.745E-04 0.196E+00
   -.214E-02 0.282E-01 -.405E+01   0.231E-02 -.262E-01 0.339E+01   0.177E-04 0.266E-03 -.700E-01
   -.609E-02 0.239E-01 -.551E+03   0.624E-02 -.229E-01 0.551E+03   -.620E-04 -.403E-03 -.475E-01
   0.172E+00 0.886E-01 -.565E+03   -.162E+00 -.864E-01 0.564E+03   -.613E-03 -.171E-02 0.752E-01
   -.398E+00 0.581E+00 -.108E+04   0.448E+00 -.629E+00 0.108E+04   0.169E-01 -.128E-01 -.629E-01
   -.131E-01 0.385E+00 -.110E+04   0.124E-01 -.405E+00 0.110E+04   0.564E-03 -.179E-02 0.690E+00
   0.488E-02 0.257E-02 0.109E+04   -.483E-02 -.226E-02 -.109E+04   -.220E-04 0.227E-04 -.118E+01
   -.370E-04 0.497E-07 0.116E+04   0.352E-05 -.120E-06 -.116E+04   -.101E-04 0.728E-04 -.174E+01
   -.157E-03 0.614E-02 0.557E+03   0.152E-03 -.600E-02 -.556E+03   -.381E-05 0.856E-04 0.171E+00
   0.167E-01 -.162E-03 0.553E+03   -.168E-01 0.188E-03 -.554E+03   -.222E-04 0.158E-04 -.156E+00
   0.622E-01 0.537E-01 -.470E+01   -.616E-01 -.482E-01 0.520E+01   0.251E-03 0.312E-02 0.197E+00
   -.485E-04 0.498E-05 -.405E+01   0.630E-04 -.314E-07 0.339E+01   -.115E-04 -.885E-06 -.702E-01
   -.139E-01 0.342E-01 -.551E+03   0.145E-01 -.337E-01 0.551E+03   -.145E-03 -.733E-03 -.487E-01
   0.595E-01 -.753E-03 -.565E+03   -.505E-01 0.527E-03 0.564E+03   0.125E-02 -.425E-04 0.810E-01
   -.878E-02 0.744E-01 -.108E+04   0.255E-01 -.836E-01 0.108E+04   0.828E-02 -.228E-02 -.826E-01
   -.135E-03 -.842E-05 -.110E+04   0.159E-03 -.159E-05 0.110E+04   0.222E-04 0.456E-05 0.695E+00
   0.490E-02 -.252E-02 0.109E+04   -.483E-02 0.228E-02 -.109E+04   0.166E-04 0.153E-04 -.118E+01
   -.920E-04 -.230E-02 0.116E+04   -.119E-04 0.231E-02 -.116E+04   -.462E-04 -.803E-05 -.174E+01
   0.895E-04 -.611E-02 0.557E+03   -.115E-03 0.600E-02 -.556E+03   0.298E-04 -.290E-04 0.171E+00
   0.258E-01 -.174E-01 0.553E+03   -.255E-01 0.170E-01 -.554E+03   0.624E-04 -.210E-03 -.156E+00
   0.608E-01 -.557E-01 -.471E+01   -.601E-01 0.511E-01 0.521E+01   0.284E-03 -.265E-02 0.197E+00
   0.196E-02 -.282E-01 -.405E+01   -.210E-02 0.262E-01 0.339E+01   -.292E-04 -.274E-03 -.700E-01
   0.135E-01 -.342E-01 -.551E+03   -.141E-01 0.337E-01 0.551E+03   0.151E-03 0.739E-03 -.487E-01
   0.161E+00 -.825E-01 -.565E+03   -.152E+00 0.808E-01 0.564E+03   -.472E-03 0.125E-02 0.755E-01
   -.102E-01 -.910E-01 -.108E+04   0.268E-01 0.991E-01 0.108E+04   0.862E-02 0.210E-02 -.828E-01
   0.124E-01 -.385E+00 -.110E+04   -.116E-01 0.405E+00 0.110E+04   -.584E-03 0.178E-02 0.690E+00
   0.621E-02 -.217E-02 0.109E+04   -.604E-02 0.227E-02 -.109E+04   -.379E-04 -.909E-04 -.118E+01
   -.753E-04 0.931E-05 0.116E+04   0.407E-05 0.120E-06 -.116E+04   -.479E-04 -.235E-04 -.175E+01
   0.913E-04 -.625E-02 0.557E+03   -.974E-04 0.614E-02 -.556E+03   -.547E-05 -.682E-04 0.170E+00
   0.349E-01 0.148E-03 0.553E+03   -.344E-01 -.164E-03 -.554E+03   0.972E-04 0.370E-04 -.156E+00
   0.171E+00 -.596E-01 -.480E+01   -.172E+00 0.586E-01 0.529E+01   -.301E-03 -.537E-03 0.196E+00
   -.105E-03 0.445E-05 -.405E+01   0.131E-03 0.188E-05 0.339E+01   0.228E-04 0.165E-05 -.704E-01
   0.531E-02 -.239E-01 -.551E+03   -.545E-02 0.229E-01 0.551E+03   0.574E-04 0.385E-03 -.475E-01
   0.288E+00 -.349E-02 -.564E+03   -.276E+00 0.338E-02 0.564E+03   -.481E-03 0.475E-03 0.733E-01
   -.341E+00 -.543E+00 -.108E+04   0.395E+00 0.590E+00 0.108E+04   0.156E-01 0.135E-01 -.647E-01
   -.293E-03 -.213E-04 -.110E+04   0.297E-03 0.327E-04 0.110E+04   -.151E-04 -.853E-05 0.684E+00
   -.618E-02 0.241E-02 0.109E+04   0.604E-02 -.227E-02 -.109E+04   -.307E-04 0.230E-04 -.118E+01
   -.826E-05 0.434E-02 0.116E+04   -.184E-04 -.420E-02 -.116E+04   -.350E-04 0.327E-04 -.174E+01
   0.952E-04 0.236E-01 0.557E+03   -.117E-03 -.205E-01 -.556E+03   0.279E-04 0.995E-03 0.170E+00
   -.257E-01 0.174E-01 0.553E+03   0.255E-01 -.170E-01 -.554E+03   -.460E-04 0.223E-03 -.156E+00
   -.171E+00 0.596E-01 -.480E+01   0.172E+00 -.587E-01 0.529E+01   0.319E-03 0.554E-03 0.196E+00
   0.125E-02 0.796E-01 -.432E+01   -.141E-02 -.925E-01 0.368E+01   -.507E-04 0.566E-02 -.638E-01
   0.105E-02 0.425E+00 -.552E+03   -.808E-03 -.353E+00 0.553E+03   0.242E-04 -.194E-01 -.401E-01
   -.160E+00 0.826E-01 -.565E+03   0.151E+00 -.809E-01 0.564E+03   0.448E-03 -.125E-02 0.755E-01
   0.341E+00 0.543E+00 -.108E+04   -.394E+00 -.589E+00 0.108E+04   -.156E-01 -.135E-01 -.647E-01
   0.581E-01 -.555E+00 -.110E+04   -.567E-01 0.683E+00 0.110E+04   -.137E-02 0.188E-01 0.713E+00
   -.486E-02 0.234E-02 0.109E+04   0.483E-02 -.228E-02 -.109E+04   0.206E-04 0.198E-04 -.118E+01
   0.922E-05 0.544E-05 0.116E+04   -.346E-05 -.196E-06 -.116E+04   0.266E-04 0.213E-04 -.174E+01
   0.120E-03 0.219E-01 0.557E+03   -.122E-03 -.201E-01 -.556E+03   0.264E-04 0.457E-03 0.171E+00
   -.167E-01 0.188E-03 0.553E+03   0.168E-01 -.190E-03 -.554E+03   -.559E-04 -.215E-04 -.156E+00
[...]
     13.06085      2.95988     21.69563         0.000012      0.003692     -0.037344
      9.79585      4.44199      8.77892         0.000130     -0.000006     -3.826764
      0.00000      5.92265      8.77892        -0.000117     -0.000019      3.354678
      0.00000      4.44199     12.04421        -0.000013     -0.000189      0.566465
      9.79585      5.92265     12.04421         0.000650      0.000023     -0.822014
      9.79585      4.44199     15.30949        -0.000738     -0.001588      0.739356
      0.00000      5.92265     15.30949         0.000052      0.000008     -0.828535
      0.00001      4.44181     18.50749         0.000021     -0.000778      0.026887
      9.79655      5.92262     18.69854         0.012397     -0.000071      0.098513
      9.79790      4.44048     22.05313         0.060234      0.044272     -0.164571
      0.00001      5.92265     21.69506        -0.000007      0.000002     -0.033861
      3.26528      7.40331      8.77892        -0.000179      0.000170     -3.826619
      6.53056      8.88397      8.77892        -0.000062      0.000187      3.354799
      6.53056      7.40331     12.04421         0.000008      0.004423      0.564191
      3.26528      8.88397     12.04421        -0.000261      0.000653     -0.821309
      3.26528      7.40331     15.30949         0.000761      0.001602      0.739204
      6.53056      8.88397     15.30949        -0.000209     -0.008294     -0.801053
      6.53055      7.39846     18.51932         0.000074      0.038056     -0.020242
      3.26490      8.88441     18.69846        -0.009542      0.002993      0.094827
      3.26325      7.40481     22.05315        -0.060198     -0.044120     -0.164713
      6.53065      8.88464     21.69148         0.001993      0.111390     -0.078698
      3.26528     10.36464      8.77892        -0.000010      0.000083     -3.826439
      6.53056      0.00000      8.77892         0.000032      0.000029      3.355067
      6.53056     10.36464     12.04421         0.000028      0.002498      0.567589
      3.26528      0.00000     12.04421         0.000025     -0.000023     -0.820863
      3.26528     10.36464     15.30949        -0.000984      0.007768      0.744967
      6.53056      0.00000     15.30949         0.000006      0.000042     -0.842177
      6.53054     10.36231     18.50237         0.000043      0.011888      0.018641
      3.26572     11.84527     18.69998        -0.007139     -0.000077      0.096764
      3.26738     10.36506     22.05853        -0.017489     -0.005364     -0.209165
      6.53056     11.84530     21.69052        -0.000007      0.000007     -0.039515
      3.26528      1.48066      8.77892        -0.000193     -0.000377     -3.826388
      6.53056      2.96132      8.77892        -0.000012     -0.000198      3.354953
      6.53056      1.48066     12.04421         0.000029     -0.002563      0.567611
      3.26528      2.96132     12.04421        -0.000205     -0.000739     -0.821559
      3.26528      1.48066     15.30949        -0.001010     -0.009259      0.744015
      6.53056      2.96132     15.30949         0.000152      0.008276     -0.801057
      6.53059      1.48299     18.50237        -0.000043     -0.011887      0.018638
      3.26489      2.96086     18.69815        -0.009641     -0.003095      0.094594
      3.26715      1.48007     22.05843        -0.017675      0.006425     -0.208778
      6.53048      2.96065     21.69148        -0.002040     -0.111460     -0.078710
      3.26528      4.44199      8.77892        -0.000213     -0.000078     -3.826706
      6.53056      5.92265      8.77892         0.000096     -0.000025      3.354409
      6.53056      4.44199     12.04421        -0.000008     -0.004388      0.564245
      3.26528      5.92265     12.04421        -0.000617     -0.000064     -0.822058
      3.26528      4.44199     15.30949         0.000754     -0.000125      0.738245
      6.53056      5.92265     15.30949        -0.000031     -0.000000     -0.804478
      6.53058      4.44684     18.51932        -0.000088     -0.038047     -0.020230
      3.26458      5.92268     18.69855        -0.012369      0.000083      0.098487
      3.26259      4.44004     22.05211        -0.056206      0.043041     -0.160865
      6.53059      5.92265     21.72702        -0.000064      0.000059     -0.640453
      9.79585      8.88397      7.50000        -0.000008     -0.000142      2.647043
      9.79585      8.88397     10.05785        -0.000040     -0.000138      1.775733
      1.27892      7.40331      8.77892        -2.287056     -0.000045     -0.821596
     11.78220      7.40331      8.77892         2.287161     -0.000061     -0.821544
      0.00000      8.88397     10.76528         0.000037     -0.000136     -1.289976
      0.00000      8.88397     13.32313         0.000007     -0.000197     -0.295348
     11.07477      7.40331     12.04421         0.293928     -0.000236      0.058425
      1.98636      7.40331     12.04421        -0.293934     -0.000191      0.058395
      9.79585      8.88397     14.03056        -0.000085     -0.002021      0.074128
      9.79585      8.88397     16.58841        -0.000499     -0.003392     -0.261928
      1.27892      7.40331     15.30949        -0.705247     -0.000385      0.106483
     11.78220      7.40331     15.30949         0.704897     -0.000274      0.106576
     13.06113      8.88436     17.31415         0.000025     -0.000837      0.162198
      0.00006      8.88406     19.87856         0.000055     -0.001164     -0.214373
     11.10359      7.40387     18.59076        -0.092235     -0.000215      0.024545
      1.95756      7.40393     18.59079         0.092319     -0.000162      0.024611
      9.80065      8.88613     20.56898        -0.010233     -0.004440      0.005756
      9.79431      8.88233     23.13725        -0.000535      0.014338     -0.258217
      1.22643      7.40271     22.01851        -0.204799      0.002389     -0.079120
     11.83495      7.40287     22.01822         0.204848      0.002232     -0.079281
      9.79585      0.00000      7.50000        -0.000086     -0.000013      2.646880
      9.79585      0.00000     10.05785         0.000020      0.000034      1.775382
      1.27892     10.36464      8.77892        -2.287070     -0.000056     -0.821642
     11.78220     10.36464      8.77892         2.287175     -0.000077     -0.821605
      0.00000      0.00000     10.76528         0.000026     -0.000007     -1.289804
      0.00000      0.00000     13.32313         0.000035     -0.000012     -0.295515
     11.07477     10.36464     12.04421         0.294053     -0.000209      0.058386
      1.98636     10.36464     12.04421        -0.293976     -0.000153      0.058377
      9.79585      0.00000     14.03056        -0.000228     -0.000294      0.073004
      9.79585      0.00000     16.58841         0.000420     -0.000142     -0.272315
      1.27892     10.36464     15.30949        -0.706125     -0.000713      0.105591
     11.78220     10.36464     15.30949         0.705906     -0.000800      0.105647
      0.00000     11.84530     17.31417        -0.000005     -0.000008      0.162156
     13.06113     11.84530     19.87861         0.000008     -0.000002     -0.213347
     11.10338     10.36529     18.59151        -0.091503     -0.001795      0.026887
      1.95781     10.36519     18.59169         0.091681     -0.001791      0.027032
      9.79629      0.00001     20.57076        -0.005128      0.000113      0.004272
      9.79781      0.00002     23.13931        -0.003519      0.000390     -0.245150
      1.22651     10.36445     22.01708        -0.204259      0.000461     -0.076585
     11.83480     10.36437     22.01721         0.204766      0.000734     -0.076399
      9.79585      2.96132      7.50000        -0.000032      0.000124      2.647037
      9.79585      2.96132     10.05785        -0.000100      0.000094      1.775732
      1.27892      1.48066      8.77892        -2.287067      0.000013     -0.821649
     11.78220      1.48066      8.77892         2.287102     -0.000043     -0.821623
      0.00000      2.96132     10.76528         0.000035      0.000089     -1.289883
      0.00000      2.96132     13.32313         0.000047      0.000177     -0.295291
     11.07477      1.48066     12.04421         0.294047      0.000169      0.058395
      1.98636      1.48066     12.04421        -0.293971      0.000175      0.058403
      9.79585      2.96132     14.03056        -0.000100      0.001970      0.073712
      9.79585      2.96132     16.58841        -0.000645      0.003402     -0.262509
      1.27892      1.48066     15.30949        -0.705901      0.000787      0.105623
     11.78220      1.48066     15.30949         0.706173      0.000714      0.105655
      0.00000      2.96093     17.31414         0.000001      0.000837      0.162156
     13.06107      2.96123     19.87856        -0.000041      0.001180     -0.214401
     11.10332      1.48011     18.59169        -0.091677      0.001786      0.027024
      1.95775      1.48001     18.59151         0.091530      0.001799      0.026907
      9.79999      2.95959     20.56934        -0.010495      0.003952      0.005838
      9.79453      2.96294     23.13760        -0.001330     -0.013130     -0.256967
      1.22633      1.48093     22.01721        -0.204786     -0.000731     -0.076405
     11.83462      1.48085     22.01708         0.204314     -0.000445     -0.076629
      9.79585      5.92265      7.50000        -0.000071     -0.000043      2.646863
      9.79585      5.92265     10.05785        -0.000108     -0.000091      1.775800
      1.27892      4.44199      8.77892        -2.287134      0.000038     -0.821636
     11.78220      4.44199      8.77892         2.287174      0.000088     -0.821537
      0.00000      5.92265     10.76528         0.000035     -0.000036     -1.289738
      0.00000      5.92265     13.32313         0.000034      0.000032     -0.295012
     11.07477      4.44199     12.04421         0.293981      0.000232      0.058397
      1.98636      4.44199     12.04421        -0.293941      0.000260      0.058426
      9.79585      5.92265     14.03056         0.000340      0.000244      0.074434
      9.79585      5.92265     16.58841        -0.002478      0.000235     -0.261773
      1.27892      4.44199     15.30949        -0.704956      0.000315      0.106546
     11.78220      4.44199     15.30949         0.705166      0.000384      0.106526
      0.00000      5.92265     17.31408         0.000015      0.000019      0.161768
      0.00000      5.92265     19.87811         0.000013      0.000004     -0.215731
     11.10357      4.44136     18.59078        -0.092309      0.000166      0.024584
      1.95754      4.44143     18.59076         0.092239      0.000158      0.024546
      9.80296      5.92241     20.56820        -0.005738      0.000026     -0.003373
      9.78355      5.92318     23.13517         0.006396     -0.002991     -0.306842
      1.22619      4.44243     22.01822        -0.204759     -0.002220     -0.079286
     11.83471      4.44259     22.01851         0.204879     -0.002398     -0.079159
      3.26528      8.88397      7.50000         0.000044     -0.000094      2.646900
      3.26528      8.88397     10.05785         0.000070     -0.000135      1.775416
      7.80949      7.40331      8.77892        -2.287377     -0.000145     -0.821400
      5.25164      7.40331      8.77892         2.287237     -0.000201     -0.821401
      6.53056      8.88397     10.76528        -0.000029     -0.001131     -1.289524
      6.53056      8.88397     13.32313        -0.000022     -0.002223     -0.295650
      4.54421      7.40331     12.04421         0.294937     -0.000440      0.058503
      8.51692      7.40331     12.04421        -0.294999     -0.000432      0.058512
      3.26528      8.88397     14.03056         0.000050     -0.001987      0.073755
      3.26528      8.88397     16.58841         0.000645     -0.003414     -0.262433
      7.80949      7.40331     15.30949        -0.706750     -0.010273      0.105137
      5.25164      7.40331     15.30949         0.707096     -0.010359      0.105071
      6.53058      8.87885     17.31537         0.000022     -0.004812      0.176590
      6.53021      8.88929     19.87500        -0.000014     -0.013765     -0.184167
      4.57142      7.40326     18.59584        -0.076077     -0.004487      0.026123
      8.48970      7.40333     18.59596         0.076135     -0.004455      0.026151
      3.26115      8.88570     20.56935         0.010520     -0.003913      0.005842
      3.26660      8.88237     23.13761         0.001366      0.013067     -0.256927
      7.76176      7.41235     21.99832        -0.295646     -0.114870      0.040838
      5.30030      7.41183     22.00135         0.291130     -0.111596      0.035200
      3.26528      0.00000      7.50000         0.000023      0.000132      2.647062
      3.26528      0.00000     10.05785         0.000083      0.000065      1.775141
      7.80949     10.36464      8.77892        -2.287257     -0.000117     -0.821556
      5.25164     10.36464      8.77892         2.287158     -0.000010     -0.821512
      6.53056      0.00000     10.76528        -0.000044      0.000015     -1.290505
      6.53056      0.00000     13.32313        -0.000042      0.000048     -0.302133
      4.54421     10.36464     12.04421         0.293928     -0.000298      0.058301
      8.51692     10.36464     12.04421        -0.294020     -0.000281      0.058344
      3.26528      0.00000     14.03056         0.000268      0.000323      0.072983
      3.26528      0.00000     16.58841        -0.000415      0.000219     -0.272294
      7.80949     10.36464     15.30949        -0.705810     -0.005572      0.108231
      5.25164     10.36464     15.30949         0.706046     -0.005518      0.108188
      6.53056     11.84530     17.31143         0.000006      0.000002      0.165127
      6.53056      0.00000     19.87403        -0.000007      0.000006     -0.200804
      4.57129     10.36475     18.59076        -0.081431     -0.002517      0.026052
      8.48979     10.36472     18.59079         0.081348     -0.002596      0.026097
      3.26484     11.84529     20.57076         0.005132     -0.000103      0.004321
      3.26332     11.84528     23.13931         0.003544     -0.000341     -0.245160
      7.75772     10.36661     22.01640        -0.221219     -0.018906     -0.086714
      5.30339     10.36678     22.01642         0.220933     -0.019146     -0.086252
      3.26528      2.96132      7.50000         0.000154      0.000260      2.647241
      3.26528      2.96132     10.05785         0.000004      0.000126      1.775574
      7.80949      1.48066      8.77892        -2.287209      0.000021     -0.821537
      5.25164      1.48066      8.77892         2.287280      0.000039     -0.821554
      6.53056      2.96132     10.76528        -0.000037      0.001124     -1.289664
      6.53056      2.96132     13.32313        -0.000037      0.002218     -0.295642
      4.54421      1.48066     12.04421         0.293900      0.000327      0.058309
      8.51692      1.48066     12.04421        -0.293997      0.000265      0.058312
      3.26528      2.96132     14.03056         0.000085      0.002013      0.074121
      3.26528      2.96132     16.58841         0.000521      0.003387     -0.261987
      7.80949      1.48066     15.30949        -0.706094      0.005488      0.108190
      5.25164      1.48066     15.30949         0.705866      0.005564      0.108240
      6.53055      2.96645     17.31537        -0.000043      0.004813      0.176542
      6.53091      2.95601     19.87500         0.000006      0.013740     -0.184156
      4.57134      1.48058     18.59079        -0.081372      0.002603      0.026100
      8.48984      1.48055     18.59076         0.081439      0.002535      0.026063
      3.26049      2.95918     20.56899         0.010239      0.004417      0.005806
      3.26682      2.96297     23.13725         0.000575     -0.014312     -0.258211
      7.75774      1.47852     22.01642        -0.220938      0.019160     -0.086264
      5.30341      1.47869     22.01640         0.221222      0.018936     -0.086723
      3.26528      5.92265      7.50000         0.000099     -0.000101      2.647197
      3.26528      5.92265     10.05785         0.000128      0.000057      1.775840
      7.80949      4.44199      8.77892        -2.287315      0.000247     -0.821473
      5.25164      4.44199      8.77892         2.287356      0.000223     -0.821396
      6.53056      5.92265     10.76528        -0.000061      0.000003     -1.288389
      6.53056      5.92265     13.32313        -0.000033     -0.000029     -0.281014
      4.54421      4.44199     12.04421         0.294926      0.000439      0.058480
      8.51692      4.44199     12.04421        -0.295002      0.000474      0.058509
      3.26528      5.92265     14.03056        -0.000320     -0.000269      0.074574
      3.26528      5.92265     16.58841         0.002457     -0.000286     -0.261594
      7.80949      4.44199     15.30949        -0.707067      0.010349      0.105068
      5.25164      4.44199     15.30949         0.706785      0.010286      0.105135
      6.53056      5.92265     17.31946        -0.000003     -0.000004      0.190272
      6.53056      5.92265     19.89449        -0.000009     -0.000017     -0.050521
      4.57143      4.44197     18.59596        -0.076155      0.004447      0.026138
      8.48971      4.44204     18.59584         0.076076      0.004497      0.026114
      3.25818      5.92289     20.56822         0.005750     -0.000075     -0.003364
      3.27760      5.92212     23.13519        -0.006477      0.002920     -0.306735
      7.76085      4.43345     22.00130        -0.291198      0.111690      0.035380
      5.29940      4.43296     21.99836         0.295625      0.114751      0.040765
 -----------------------------------------------------------------------------------
    total drift:                                0.000015     -0.000146     -0.207916


--------------------------------------------------------------------------------------------------------



  FREE ENERGIE OF THE ION-ELECTRON SYSTEM (eV)
  ---------------------------------------------------
  free  energy   TOTEN  =     -2616.66027543 eV

  energy  without entropy=    -2616.66027543  energy(sigma->0) =    -2616.66027543



--------------------------------------------------------------------------------------------------------


    POTLOK:  cpu time      3.5106: real time      3.5122


--------------------------------------------------------------------------------------------------------


     LOOP+:  cpu time   6835.0913: real time   6843.2944
    4ORBIT:  cpu time      0.0000: real time      0.0000

 total amount of memory used by VASP MPI-rank0   511845. kBytes
=======================================================================

   base      :      30000. kBytes
   nonl-proj :     153600. kBytes
   fftplans  :      13950. kBytes
   grid      :      12936. kBytes
   one-center:        648. kBytes
   HF        :         90. kBytes
   nonlr-proj:      61285. kBytes
   wavefun   :      18873. kBytes
   fock_wrk  :     220463. kBytes

  
  
 General timing and accounting informations for this job:
 ========================================================
  
                  Total CPU time used (sec):     6940.624
                            User time (sec):     6915.783
                          System time (sec):       24.841
                         Elapsed time (sec):     6978.962
  
                   Maximum memory used (kb):     1060732.
                   Average memory used (kb):          N/A
  
                          Minor page faults:       622138
                          Major page faults:         1267
                 Voluntary context switches:        22564
