 vasp.6.3.0 20Jan22 (build Aug 21 2024 11:13:42) complex                         
 executed on        HPECrayEX_GCC date 2024.08.27  13:24:42
 running  512 mpi-ranks, with    1 threads/rank
 distrk:  each k-point on  512 cores,    1 groups
 distr:  one band on NCORE=   8 cores,   64 groups


--------------------------------------------------------------------------------------------------------


 INCAR:
   SYSTEM = MgO-rocksalt
   ISMEAR = 0
   SIGMA = 0.05
   EDIFF = 1E-6
   ALGO = ALL
   ISTART = 0
   IBRION = -1
   NSW = 0
   ISYM = 0
   DIPOL = 0.5 0.5 0.5
   IDIPOL = 3
   LDIPOL = .TRUE.
   GGA = MK
   LUSE_VDW = .TRUE.
   PARAM1 = 0.1234
   PARAM2 = 0.711357
   ZAB_VDW = -1.8867
   AGGAC = 0.0
   ENCUT = 600
   PREC = Accurate
   LASPH = .TRUE.
   LREAL = .FALSE.
   ISPIN = 1
   NELM = 200
   NELMIN = 8
   NCORE = 8
   KPAR = 1
   LWAVE = .FALSE.
   LCHARG = .FALSE.

 POTCAR:    PAW_PBE C 08Apr2002                   
 POTCAR:    PAW_PBE H 15Jun2001                   
 -----------------------------------------------------------------------------
|                                                                             |
|               ----> ADVICE to this user running VASP <----                  |
|                                                                             |
|     You have switched on vdW-DFT.                                           |
|     This routine was written and supplied by Jiri Klimes. We recommend      |
|     that you carefully read and cite the following publications:            |
|       J. Klimes, D.R. Bowler, A. Michelides                                 |
|          J. Phys.: Cond Matt. 22 022201 (2010)                              |
|       J. Klimes, D.R. Bowler, A. Michelides                                 |
|          Phys. Rev. B. 83, 195131 (2011)                                    |
|     and references therein.                                                 |
|                                                                             |
 -----------------------------------------------------------------------------

 POTCAR:    PAW_PBE C 08Apr2002                   
   SHA256 =  253f7b50bb8d59471dbedb8285d89021f4a42ed1a2c5d38a03a736e69125dd95 C/POTCAR              
   COPYR  = (c) Copyright 08Apr2002 Georg Kresse                                                    
   COPYR  = This file is part of the software VASP. Any use, copying, and all other rights are regul
   COPYR  = If you do not have a valid VASP license, you may not use, copy or distribute this file. 
   VRHFIN =C: s2p2                                                                                  
   LEXCH  = PE                                                                                      
   EATOM  =   147.1560 eV,   10.8157 Ry                                                             
                                                                                                    
   TITEL  = PAW_PBE C 08Apr2002                                                                     
   LULTRA =        F    use ultrasoft PP ?                                                          
   IUNSCR =        1    unscreen: 0-lin 1-nonlin 2-no                                               
   RPACOR =    1.200    partial core radius                                                         
   POMASS =   12.011; ZVAL   =    4.000    mass and valenz                                          
   RCORE  =    1.500    outmost cutoff radius                                                       
   RWIGS  =    1.630; RWIGS  =    0.863    wigner-seitz radius (au A)                               
   ENMAX  =  400.000; ENMIN  =  300.000 eV                                                          
   ICORE  =        2    local potential                                                             
   LCOR   =        T    correct aug charges                                                         
   LPAW   =        T    paw PP                                                                      
   EAUG   =  644.873                                                                                
   DEXC   =    0.000                                                                                
   RMAX   =    1.529    core radius for proj-oper                                                   
   RAUG   =    1.300    factor for augmentation sphere                                              
   RDEP   =    1.501    radius for radial grids                                                     
   RDEPT  =    1.300    core radius for aug-charge                                                  
                                                                                                    
   Atomic configuration                                                                             
    4 entries                                                                                       
     n  l   j            E        occ.                                                              
     1  0  0.50      -273.3789   2.0000                                                             
     2  0  0.50       -13.7508   2.0000                                                             
     2  1  0.50        -5.2854   2.0000                                                             
     3  2  1.50        -5.4423   0.0000                                                             
   Description                                                                                      
     l       E           TYP  RCUT    TYP  RCUT                                                     
     0    -13.7508458     23  1.200                                                                 
     0     -8.2022199     23  1.200                                                                 
     1     -5.2854383     23  1.500                                                                 
     1     34.0145650     23  1.500                                                                 
     2     -5.4423304      7  1.500                                                                 
  local pseudopotential read in
  partial core-charges read in
  partial kinetic energy density read in
  atomic valenz-charges read in
  non local Contribution for L=           0  read in
    real space projection operators read in
  non local Contribution for L=           0  read in
    real space projection operators read in
  non local Contribution for L=           1  read in
    real space projection operators read in
  non local Contribution for L=           1  read in
    real space projection operators read in
    PAW grid and wavefunctions read in

   number of l-projection  operators is LMAX  =           4
   number of lm-projection operators is LMMAX =           8

 POTCAR:    PAW_PBE H 15Jun2001                   
   SHA256 =  030f79b5d3ab3cf0e668861823c8fb652ff669f3e15e46930bd03bfd63a607b6 H/POTCAR              
   COPYR  = (c) Copyright 15Jun2001 Georg Kresse                                                    
   COPYR  = This file is part of the software VASP. Any use, copying, and all other rights are regul
   COPYR  = If you do not have a valid VASP license, you may not use, copy or distribute this file. 
   VRHFIN =H: ultrasoft test                                                                        
   LEXCH  = PE                                                                                      
   EATOM  =    12.4884 eV,    0.9179 Ry                                                             
                                                                                                    
   TITEL  = PAW_PBE H 15Jun2001                                                                     
   LULTRA =        F    use ultrasoft PP ?                                                          
   IUNSCR =        0    unscreen: 0-lin 1-nonlin 2-no                                               
   RPACOR =    0.000    partial core radius                                                         
   POMASS =    1.000; ZVAL   =    1.000    mass and valenz                                          
   RCORE  =    1.100    outmost cutoff radius                                                       
   RWIGS  =    0.700; RWIGS  =    0.370    wigner-seitz radius (au A)                               
   ENMAX  =  250.000; ENMIN  =  200.000 eV                                                          
   RCLOC  =    0.701    cutoff for local pot                                                        
   LCOR   =        T    correct aug charges                                                         
   LPAW   =        T    paw PP                                                                      
   EAUG   =  400.000                                                                                
   RMAX   =    1.123    core radius for proj-oper                                                   
   RAUG   =    1.200    factor for augmentation sphere                                              
   RDEP   =    1.112    radius for radial grids                                                     
   RDEPT  =    0.926    core radius for aug-charge                                                  
                                                                                                    
   Atomic configuration                                                                             
    2 entries                                                                                       
     n  l   j            E        occ.                                                              
     1  0  0.50        -6.4927   1.0000                                                             
     2  1  0.50        -3.4015   0.0000                                                             
   Description                                                                                      
     l       E           TYP  RCUT    TYP  RCUT                                                     
     0     -6.4927494     23  1.100                                                                 
     0      6.8029130     23  1.100                                                                 
     1     -4.0817478     23  1.100                                                                 
  local pseudopotential read in
  atomic valenz-charges read in
  non local Contribution for L=           0  read in
    real space projection operators read in
  non local Contribution for L=           0  read in
    real space projection operators read in
  non local Contribution for L=           1  read in
    real space projection operators read in
    PAW grid and wavefunctions read in

   number of l-projection  operators is LMAX  =           3
   number of lm-projection operators is LMMAX =           5

 -----------------------------------------------------------------------------
|                                                                             |
|               ----> ADVICE to this user running VASP <----                  |
|                                                                             |
|     You have a (more or less) 'large supercell' and for larger cells it     |
|     might be more efficient to use real-space projection operators.         |
|     Therefore, try LREAL= Auto in the INCAR file.                           |
|     Mind: For very accurate calculation, you might also keep the            |
|     reciprocal projection scheme (i.e. LREAL=.FALSE.).                      |
|                                                                             |
 -----------------------------------------------------------------------------

 -----------------------------------------------------------------------------
|                                                                             |
|               ----> ADVICE to this user running VASP <----                  |
|                                                                             |
|     You enforced a specific xc type in the INCAR file but a different       |
|     type was found in the POTCAR file.                                      |
|     I HOPE YOU KNOW WHAT YOU ARE DOING!                                     |
|                                                                             |
 -----------------------------------------------------------------------------

  PAW_PBE C 08Apr2002                   :
 energy of atom  1       EATOM= -147.1560
 kinetic energy error for atom=    0.0057 (will be added to EATOM!!)
  PAW_PBE H 15Jun2001                   :
 energy of atom  2       EATOM=  -12.4884
 kinetic energy error for atom=    0.0004 (will be added to EATOM!!)


 POSCAR:  C  H
  positions in direct lattice
  No initial velocities read in
 exchange correlation table for  LEXCH =       43
   RHO(1)=    0.500       N(1)  =     2000
   RHO(2)=  100.500       N(2)  =     4000



--------------------------------------------------------------------------------------------------------


 ion  position               nearest neighbor table
   1  0.500  0.500  0.790-   6 1.10   5 1.10   7 1.10   8 1.10
   2  0.000  0.500  0.790-  10 1.10   9 1.10  11 1.10  12 1.10
   3  0.500  1.000  0.790-  14 1.10  13 1.10  15 1.10  16 1.10
   4  0.000  1.000  0.790-  18 1.10  17 1.10  20 1.10  19 1.10
   5  0.500  0.606  0.819-   1 1.10
   6  0.500  0.394  0.819-   1 1.10
   7  0.607  0.500  0.761-   1 1.10
   8  0.393  0.500  0.761-   1 1.10
   9  0.894  0.500  0.819-   2 1.10
  10  0.106  0.500  0.819-   2 1.10
  11  1.000  0.607  0.761-   2 1.10
  12  1.000  0.393  0.761-   2 1.10
  13  0.394  1.000  0.819-   3 1.10
  14  0.606  1.000  0.819-   3 1.10
  15  0.500  0.107  0.761-   3 1.10
  16  0.500  0.893  0.761-   3 1.10
  17  0.000  0.106  0.819-   4 1.10
  18  1.000  0.894  0.819-   4 1.10
  19  0.107  1.000  0.761-   4 1.10
  20  0.893  1.000  0.761-   4 1.10


IMPORTANT INFORMATION: All symmetrisations will be switched off!
NOSYMM: (Re-)initialisation of all symmetry stuff for point group C_1.


----------------------------------------------------------------------------------------

                                     Primitive cell                                     

  volume of cell :    1530.6606

  direct lattice vectors                    reciprocal lattice vectors
     8.467142631  0.000000000  0.000000000     0.118103597  0.000000000  0.000000000
     0.000000000  8.467142631  0.000000000     0.000000000  0.118103597  0.000000000
     0.000000000  0.000000000 21.350356973     0.000000000  0.000000000  0.046837624

  length of vectors
     8.467142631  8.467142631 21.350356973     0.118103597  0.118103597  0.046837624

  position of ions in fractional coordinates (direct lattice)
     0.500000003  0.499999989  0.790068847
     0.000000002  0.499999995  0.790071425
     0.500000007  1.000000000  0.790070441
     0.000000001  0.999999991  0.790069285
     0.500000002  0.606355066  0.819475378
     0.500000005  0.393644947  0.819475376
     0.607099412  0.500000002  0.760797077
     0.392900592  0.500000001  0.760797077
     0.893656511  0.499999996  0.819483310
     0.106343477  0.499999994  0.819483309
     0.999999998  0.607086949  0.760793616
     0.999999996  0.392913040  0.760793616
     0.393660049  0.999999996  0.819483802
     0.606339931  0.999999992  0.819483800
     0.499999999  0.107079075  0.760788863
     0.499999994  0.892920915  0.760788862
     0.000000003  0.106342206  0.819481416
     1.000000000  0.893657802  0.819481416
     0.107090805  0.999999996  0.760794180
     0.892909197  1.000000000  0.760794181

  ion indices of the primitive-cell ions
   primitive index   ion index
                 1           1
                 2           2
                 3           3
                 4           4
                 5           5
                 6           6
                 7           7
                 8           8
                 9           9
                10          10
                11          11
                12          12
                13          13
                14          14
                15          15
                16          16
                17          17
                18          18
                19          19
                20          20

----------------------------------------------------------------------------------------



 KPOINTS: pymatgen v2020.8.13 with grid density = 

Automatic generation of k-mesh.
 Grid dimensions read from file:
 generate k-points for:    2    2    1

 Generating k-lattice:

  Cartesian coordinates                     Fractional coordinates (reciprocal lattice)
     0.059051798  0.000000000  0.000000000     0.500000000  0.000000000  0.000000000
     0.000000000  0.059051798  0.000000000     0.000000000  0.500000000  0.000000000
     0.000000000  0.000000000  0.046837624     0.000000000  0.000000000  1.000000000

  Length of vectors
     0.059051798  0.059051798  0.046837624

  Shift w.r.t. Gamma in fractional coordinates (k-lattice)
     0.000000000  0.000000000  0.000000000

 
 Subroutine IBZKPT returns following result:
 ===========================================
 
 Found      4 irreducible k-points:
 
 Following reciprocal coordinates:
            Coordinates               Weight
  0.000000  0.000000  0.000000      1.000000
  0.500000  0.000000  0.000000      1.000000
  0.000000  0.500000  0.000000      1.000000
  0.500000  0.500000  0.000000      1.000000
 
 Following cartesian coordinates:
            Coordinates               Weight
  0.000000  0.000000  0.000000      1.000000
  0.059052  0.000000  0.000000      1.000000
  0.000000  0.059052  0.000000      1.000000
  0.059052  0.059052  0.000000      1.000000
 


--------------------------------------------------------------------------------------------------------




 Dimension of arrays:
   k-points           NKPTS =      4   k-points in BZ     NKDIM =      4   number of bands    NBANDS=     64
   number of dos      NEDOS =    301   number of ions     NIONS =     20
   non local maximal  LDIM  =      4   non local SUM 2l+1 LMDIM =      8
   total plane-waves  NPLWV = 882000
   max r-space proj   IRMAX =      1   max aug-charges    IRDMAX=   6999
   dimension x,y,z NGX =    70 NGY =   70 NGZ =  180
   dimension x,y,z NGXF=   140 NGYF=  140 NGZF=  360
   support grid    NGXF=   140 NGYF=  140 NGZF=  360
   ions per type =               4  16
   NGX,Y,Z   is equivalent  to a cutoff of  13.74, 13.74, 14.02 a.u.
   NGXF,Y,Z  is equivalent  to a cutoff of  27.49, 27.49, 28.03 a.u.

 SYSTEM =  MgO-rocksalt                            
 POSCAR =   C  H                                   

--------------------------------------------------------------------------------------------------------


  energy-cutoff  :      600.00
  volume of cell :     1530.66
      direct lattice vectors                 reciprocal lattice vectors
     8.467142631  0.000000000  0.000000000     0.118103597  0.000000000  0.000000000
     0.000000000  8.467142631  0.000000000     0.000000000  0.118103597  0.000000000
     0.000000000  0.000000000 21.350356973     0.000000000  0.000000000  0.046837624

  length of vectors
     8.467142631  8.467142631 21.350356973     0.118103597  0.118103597  0.046837624



 k-points in units of 2pi/SCALE and weight: pymatgen v2020.8.13 with grid density = 
   0.00000000  0.00000000  0.00000000       0.250
   0.05905180  0.00000000  0.00000000       0.250
   0.00000000  0.05905180  0.00000000       0.250
   0.05905180  0.05905180  0.00000000       0.250

 k-points in reciprocal lattice and weights: pymatgen v2020.8.13 with grid density = 
   0.00000000  0.00000000  0.00000000       0.250
   0.50000000  0.00000000  0.00000000       0.250
   0.00000000  0.50000000  0.00000000       0.250
   0.50000000  0.50000000  0.00000000       0.250

 position of ions in fractional coordinates (direct lattice) 
   0.50000000  0.49999999  0.79006885
   0.00000000  0.49999999  0.79007143
   0.50000001  1.00000000  0.79007044
   0.00000000  0.99999999  0.79006929
   0.50000000  0.60635507  0.81947538
   0.50000000  0.39364495  0.81947538
   0.60709941  0.50000000  0.76079708
   0.39290059  0.50000000  0.76079708
   0.89365651  0.50000000  0.81948331
   0.10634348  0.49999999  0.81948331
   1.00000000  0.60708695  0.76079362
   1.00000000  0.39291304  0.76079362
   0.39366005  1.00000000  0.81948380
   0.60633993  0.99999999  0.81948380
   0.50000000  0.10707907  0.76078886
   0.49999999  0.89292091  0.76078886
   0.00000000  0.10634221  0.81948142
   1.00000000  0.89365780  0.81948142
   0.10709081  1.00000000  0.76079418
   0.89290920  1.00000000  0.76079418

 position of ions in cartesian coordinates  (Angst):
   4.23357134  4.23357122 16.86825191
   0.00000002  4.23357127 16.86830697
   4.23357137  8.46714263 16.86828596
   0.00000001  8.46714256 16.86826127
   4.23357133  5.13409483 17.49609186
   4.23357136  3.33304791 17.49609181
   5.14039731  4.23357133 16.24328918
   3.32674535  4.23357132 16.24328917
   7.56671714  4.23357128 17.49626120
   0.90042538  4.23357127 17.49626118
   8.46714261  5.14029179 16.24321528
   8.46714260  3.32685075 16.24321529
   3.33317578  8.46714260 17.49627170
   5.13396668  8.46714256 17.49627166
   4.23357131  0.90665380 16.24311380
   4.23357127  7.56048874 16.24311377
   0.00000002  0.90041463 17.49622077
   8.46714263  7.56672808 17.49622076
   0.90675312  8.46714260 16.24322733
   7.56038952  8.46714263 16.24322735



--------------------------------------------------------------------------------------------------------

--------------------------------------- Iteration      FINAL  ---------------------------------------


--------------------OUTCAR has been truncated-------------------------


--------------------OUTCAR has been truncated-------------------------


--------------------OUTCAR has been truncated-------------------------


--------------------OUTCAR has been truncated-------------------------


--------------------OUTCAR has been truncated-------------------------


--------------------OUTCAR has been truncated-------------------------


--------------------OUTCAR has been truncated-------------------------


--------------------OUTCAR has been truncated-------------------------


--------------------OUTCAR has been truncated-------------------------


--------------------OUTCAR has been truncated-------------------------


  FORCE on cell =-STRESS in cart. coord.  units (eV):
  Direction    XX          YY          ZZ          XY          YZ          ZX
  --------------------------------------------------------------------------------------
  Alpha Z     2.53225     2.53225     2.53225
  Ewald    1765.02240  1765.00730 -1885.25306    -0.00000    -0.00003     0.00002
  Hartree  1932.83891  1932.83485 -1590.83470    -0.00000    -0.00000     0.00000
  E(xc)    -109.10785  -109.10796  -108.92370    -0.00000    -0.00000     0.00000
  Local   -3932.74162 -3932.72508  3239.25735     0.00000     0.00002    -0.00002
  n-local   -64.01273   -64.01292   -63.99067    -0.00000     0.00000    -0.00000
  augment     0.54956     0.54958     0.56391     0.00000     0.00000    -0.00000
  Kinetic   403.81801   403.82215   406.68162     0.00000     0.00000    -0.00000
  Fock        0.00000     0.00000     0.00000     0.00000     0.00000     0.00000
  -------------------------------------------------------------------------------------
  Total      -1.10108    -1.09983     0.03300     0.00000    -0.00001     0.00001
  in kB      -1.15253    -1.15121     0.03454     0.00000    -0.00001     0.00001
  external pressure =       -0.76 kB  Pullay stress =        0.00 kB


 VOLUME and BASIS-vectors are now :
 -----------------------------------------------------------------------------
  energy-cutoff  :      600.00
  volume of cell :     1530.66
      direct lattice vectors                 reciprocal lattice vectors
     8.467142631  0.000000000  0.000000000     0.118103597  0.000000000  0.000000000
     0.000000000  8.467142631  0.000000000     0.000000000  0.118103597  0.000000000
     0.000000000  0.000000000 21.350356973     0.000000000  0.000000000  0.046837624

  length of vectors
     8.467142631  8.467142631 21.350356973     0.118103597  0.118103597  0.046837624


 FORCES acting on ions:
    Electron-Ion                     Ewald-Force                    Non-Local-Force
 -----------------------------------------------------------------------------------------------
   0.207E-05 -.653E-05 0.703E+00   -.220E-05 0.951E-05 -.795E+00   -.255E-06 0.479E-05 0.145E-01
   0.183E-05 0.919E-06 0.699E+00   -.381E-05 -.845E-07 -.791E+00   -.221E-05 0.902E-07 0.144E-01
   0.697E-05 -.454E-07 0.696E+00   -.978E-05 -.209E-05 -.788E+00   -.403E-05 -.921E-06 0.138E-01
   -.450E-06 -.469E-05 0.707E+00   0.591E-06 0.604E-05 -.799E+00   0.371E-06 0.417E-05 0.152E-01
   0.421E-06 -.375E+02 -.371E+02   -.451E-06 0.420E+02 0.403E+02   0.133E-07 -.457E+01 -.316E+01
   -.629E-06 0.375E+02 -.371E+02   0.645E-06 -.420E+02 0.403E+02   -.157E-06 0.457E+01 -.316E+01
   -.374E+02 -.468E-05 0.368E+02   0.418E+02 0.492E-05 -.399E+02   -.455E+01 -.703E-06 0.311E+01
   0.374E+02 -.390E-05 0.368E+02   -.418E+02 0.420E-05 -.399E+02   0.455E+01 -.588E-06 0.311E+01
   0.375E+02 -.777E-07 -.371E+02   -.420E+02 0.577E-06 0.403E+02   0.457E+01 0.394E-07 -.317E+01
   -.375E+02 0.437E-06 -.371E+02   0.420E+02 -.733E-07 0.403E+02   -.457E+01 0.512E-07 -.317E+01
   0.133E-05 -.374E+02 0.368E+02   -.127E-05 0.418E+02 -.399E+02   0.215E-06 -.455E+01 0.311E+01
   0.183E-05 0.374E+02 0.368E+02   -.184E-05 -.418E+02 -.399E+02   0.297E-06 0.455E+01 0.311E+01
   0.375E+02 0.117E-05 -.371E+02   -.420E+02 -.134E-05 0.403E+02   0.457E+01 0.241E-06 -.317E+01
   -.375E+02 0.248E-05 -.371E+02   0.420E+02 -.301E-05 0.403E+02   -.457E+01 0.331E-06 -.317E+01
   0.243E-05 -.374E+02 0.368E+02   -.263E-05 0.418E+02 -.399E+02   0.412E-06 -.455E+01 0.311E+01
   0.411E-05 0.374E+02 0.368E+02   -.453E-05 -.418E+02 -.399E+02   0.621E-06 0.455E+01 0.311E+01
   -.660E-06 -.375E+02 -.371E+02   0.910E-06 0.420E+02 0.403E+02   -.828E-07 -.457E+01 -.317E+01
   0.404E-06 0.375E+02 -.371E+02   -.306E-06 -.420E+02 0.403E+02   0.476E-07 0.457E+01 -.317E+01
   -.374E+02 -.192E-05 0.368E+02   0.418E+02 0.169E-05 -.399E+02   -.455E+01 -.413E-06 0.311E+01
   0.374E+02 -.270E-05 0.368E+02   -.418E+02 0.297E-05 -.399E+02   0.455E+01 -.365E-06 0.311E+01
 -----------------------------------------------------------------------------------------------
   0.108E-04 -.890E-05 0.415E+00   0.142E-13 0.568E-13 0.000E+00   -.844E-05 0.110E-04 -.415E+00


 POSITION                                       TOTAL-FORCE (eV/Angst)
 -----------------------------------------------------------------------------------
      4.23357      4.23357     16.86825        -0.000001      0.000008     -0.076614
      0.00000      4.23357     16.86831        -0.000004      0.000001     -0.076839
      4.23357      8.46714     16.86829        -0.000007     -0.000003     -0.077156
      0.00000      8.46714     16.86826         0.000000      0.000005     -0.076309
      4.23357      5.13409     17.49609        -0.000000     -0.049238      0.042223
      4.23357      3.33305     17.49609        -0.000000      0.049230      0.042227
      5.14040      4.23357     16.24329        -0.166873     -0.000001     -0.003919
      3.32675      4.23357     16.24329         0.166874     -0.000000     -0.003919
      7.56672      4.23357     17.49626         0.048141      0.000000      0.041451
      0.90043      4.23357     17.49626        -0.048137      0.000000      0.041454
      8.46714      5.14029     16.24322         0.000000     -0.165760     -0.003029
      8.46714      3.32685     16.24322         0.000000      0.165761     -0.003028
      3.33318      8.46714     17.49627         0.047749     -0.000000      0.041159
      5.13397      8.46714     17.49627        -0.047743     -0.000000      0.041162
      4.23357      0.90665     16.24311         0.000000     -0.165059     -0.002585
      4.23357      7.56049     16.24311         0.000000      0.165061     -0.002584
      0.00000      0.90041     17.49622         0.000000     -0.047951      0.041610
      8.46714      7.56673     17.49622         0.000000      0.047947      0.041613
      0.90675      8.46714     16.24323        -0.165892     -0.000001     -0.003458
      7.56039      8.46714     16.24323         0.165893     -0.000000     -0.003457
 -----------------------------------------------------------------------------------
    total drift:                                0.000002      0.000002      0.000230


--------------------------------------------------------------------------------------------------------



  FREE ENERGIE OF THE ION-ELECTRON SYSTEM (eV)
  ---------------------------------------------------
  free  energy   TOTEN  =       -90.63118906 eV

  energy  without entropy=      -90.63118906  energy(sigma->0) =      -90.63118906



--------------------------------------------------------------------------------------------------------


    POTLOK:  cpu time      0.6059: real time      0.6063


--------------------------------------------------------------------------------------------------------


     LOOP+:  cpu time     48.4803: real time     49.0936
    4ORBIT:  cpu time      0.0000: real time      0.0000

 total amount of memory used by VASP MPI-rank0    48942. kBytes
=======================================================================

   base      :      30000. kBytes
   nonl-proj :       5378. kBytes
   fftplans  :       4925. kBytes
   grid      :       7379. kBytes
   one-center:          9. kBytes
   wavefun   :       1251. kBytes

  
  
 General timing and accounting informations for this job:
 ========================================================
  
                  Total CPU time used (sec):       81.097
                            User time (sec):       80.260
                          System time (sec):        0.836
                         Elapsed time (sec):       94.306
  
                   Maximum memory used (kb):      349164.
                   Average memory used (kb):          N/A
  
                          Minor page faults:        45010
                          Major page faults:          818
                 Voluntary context switches:        10787
