 vasp.6.3.0 20Jan22 (build Apr  1 2022 16:44:48) complex                         
 executed on        HPECrayEX_GCC date 2022.10.25  01:05:26
 running  512 mpi-ranks, with    1 threads/rank
 distrk:  each k-point on  512 cores,    1 groups
 distr:  one band on NCORE=   8 cores,   64 groups


--------------------------------------------------------------------------------------------------------


 INCAR:
   SYSTEM = MgO-rocksalt
   ISMEAR = 0
   SIGMA = 0.05
   EDIFF = 1E-6
   ALGO = ALL
   ISTART = 0
   IBRION = -1
   NSW = 0
   ISYM = 0
   DIPOL = 0.5 0.5 0.5
   IDIPOL = 3
   LDIPOL = .TRUE.
   GGA = MK
   LUSE_VDW = .TRUE.
   PARAM1 = 0.1234
   PARAM2 = 0.711357
   ZAB_VDW = -1.8867
   AGGAC = 0.0
   ENCUT = 600
   PREC = Accurate
   LASPH = .TRUE.
   LREAL = .FALSE.
   ISPIN = 1
   NELM = 200
   NELMIN = 8
   NCORE = 8
   KPAR = 1
   LWAVE = .FALSE.
   LCHARG = .FALSE.

 POTCAR:    PAW_PBE C 08Apr2002                   
 POTCAR:    PAW_PBE H 15Jun2001                   
 POTCAR:    PAW_PBE Mg_pv 13Apr2007               
 POTCAR:    PAW_PBE O 08Apr2002                   
 -----------------------------------------------------------------------------
|                                                                             |
|               ----> ADVICE to this user running VASP <----                  |
|                                                                             |
|     You have switched on vdW-DFT.                                           |
|     This routine was written and supplied by Jiri Klimes. We recommend      |
|     that you carefully read and cite the following publications:            |
|       J. Klimes, D.R. Bowler, A. Michelides                                 |
|          J. Phys.: Cond Matt. 22 022201 (2010)                              |
|       J. Klimes, D.R. Bowler, A. Michelides                                 |
|          Phys. Rev. B. 83, 195131 (2011)                                    |
|     and references therein.                                                 |
|                                                                             |
 -----------------------------------------------------------------------------

 POTCAR:    PAW_PBE C 08Apr2002                   
   SHA256 =  253f7b50bb8d59471dbedb8285d89021f4a42ed1a2c5d38a03a736e69125dd95 C/POTCAR              
   COPYR  = (c) Copyright 08Apr2002 Georg Kresse                                                    
   COPYR  = This file is part of the software VASP. Any use, copying, and all other rights are regul
   COPYR  = If you do not have a valid VASP license, you may not use, copy or distribute this file. 
   VRHFIN =C: s2p2                                                                                  
   LEXCH  = PE                                                                                      
   EATOM  =   147.1560 eV,   10.8157 Ry                                                             
                                                                                                    
   TITEL  = PAW_PBE C 08Apr2002                                                                     
   LULTRA =        F    use ultrasoft PP ?                                                          
   IUNSCR =        1    unscreen: 0-lin 1-nonlin 2-no                                               
   RPACOR =    1.200    partial core radius                                                         
   POMASS =   12.011; ZVAL   =    4.000    mass and valenz                                          
   RCORE  =    1.500    outmost cutoff radius                                                       
   RWIGS  =    1.630; RWIGS  =    0.863    wigner-seitz radius (au A)                               
   ENMAX  =  400.000; ENMIN  =  300.000 eV                                                          
   ICORE  =        2    local potential                                                             
   LCOR   =        T    correct aug charges                                                         
   LPAW   =        T    paw PP                                                                      
   EAUG   =  644.873                                                                                
   DEXC   =    0.000                                                                                
   RMAX   =    1.529    core radius for proj-oper                                                   
   RAUG   =    1.300    factor for augmentation sphere                                              
   RDEP   =    1.501    radius for radial grids                                                     
   RDEPT  =    1.300    core radius for aug-charge                                                  
                                                                                                    
   Atomic configuration                                                                             
    4 entries                                                                                       
     n  l   j            E        occ.                                                              
     1  0  0.50      -273.3789   2.0000                                                             
     2  0  0.50       -13.7508   2.0000                                                             
     2  1  0.50        -5.2854   2.0000                                                             
     3  2  1.50        -5.4423   0.0000                                                             
   Description                                                                                      
     l       E           TYP  RCUT    TYP  RCUT                                                     
     0    -13.7508458     23  1.200                                                                 
     0     -8.2022199     23  1.200                                                                 
     1     -5.2854383     23  1.500                                                                 
     1     34.0145650     23  1.500                                                                 
     2     -5.4423304      7  1.500                                                                 
  local pseudopotential read in
  partial core-charges read in
  partial kinetic energy density read in
  atomic valenz-charges read in
  non local Contribution for L=           0  read in
    real space projection operators read in
  non local Contribution for L=           0  read in
    real space projection operators read in
  non local Contribution for L=           1  read in
    real space projection operators read in
  non local Contribution for L=           1  read in
    real space projection operators read in
    PAW grid and wavefunctions read in

   number of l-projection  operators is LMAX  =           4
   number of lm-projection operators is LMMAX =           8

 POTCAR:    PAW_PBE H 15Jun2001                   
   SHA256 =  030f79b5d3ab3cf0e668861823c8fb652ff669f3e15e46930bd03bfd63a607b6 H/POTCAR              
   COPYR  = (c) Copyright 15Jun2001 Georg Kresse                                                    
   COPYR  = This file is part of the software VASP. Any use, copying, and all other rights are regul
   COPYR  = If you do not have a valid VASP license, you may not use, copy or distribute this file. 
   VRHFIN =H: ultrasoft test                                                                        
   LEXCH  = PE                                                                                      
   EATOM  =    12.4884 eV,    0.9179 Ry                                                             
                                                                                                    
   TITEL  = PAW_PBE H 15Jun2001                                                                     
   LULTRA =        F    use ultrasoft PP ?                                                          
   IUNSCR =        0    unscreen: 0-lin 1-nonlin 2-no                                               
   RPACOR =    0.000    partial core radius                                                         
   POMASS =    1.000; ZVAL   =    1.000    mass and valenz                                          
   RCORE  =    1.100    outmost cutoff radius                                                       
   RWIGS  =    0.700; RWIGS  =    0.370    wigner-seitz radius (au A)                               
   ENMAX  =  250.000; ENMIN  =  200.000 eV                                                          
   RCLOC  =    0.701    cutoff for local pot                                                        
   LCOR   =        T    correct aug charges                                                         
   LPAW   =        T    paw PP                                                                      
   EAUG   =  400.000                                                                                
   RMAX   =    1.123    core radius for proj-oper                                                   
   RAUG   =    1.200    factor for augmentation sphere                                              
   RDEP   =    1.112    radius for radial grids                                                     
   RDEPT  =    0.926    core radius for aug-charge                                                  
                                                                                                    
   Atomic configuration                                                                             
    2 entries                                                                                       
     n  l   j            E        occ.                                                              
     1  0  0.50        -6.4927   1.0000                                                             
     2  1  0.50        -3.4015   0.0000                                                             
   Description                                                                                      
     l       E           TYP  RCUT    TYP  RCUT                                                     
     0     -6.4927494     23  1.100                                                                 
     0      6.8029130     23  1.100                                                                 
     1     -4.0817478     23  1.100                                                                 
  local pseudopotential read in
  atomic valenz-charges read in
  non local Contribution for L=           0  read in
    real space projection operators read in
  non local Contribution for L=           0  read in
    real space projection operators read in
  non local Contribution for L=           1  read in
    real space projection operators read in
    PAW grid and wavefunctions read in

   number of l-projection  operators is LMAX  =           3
   number of lm-projection operators is LMMAX =           5

 POTCAR:    PAW_PBE Mg_pv 13Apr2007               
   SHA256 =  f474ac0dd33840b9ae76c01d57fea79fdf77cdfbb07d5ade72c65f83c709b62b Mg_pv/POTCAR          
   COPYR  = (c) Copyright 13Apr2007 Georg Kresse                                                    
   COPYR  = This file is part of the software VASP. Any use, copying, and all other rights are regul
   COPYR  = If you do not have a valid VASP license, you may not use, copy or distribute this file. 
   VRHFIN =Mg: p6s2                                                                                 
   LEXCH  = PE                                                                                      
   EATOM  =  1056.7344 eV,   77.6678 Ry                                                             
                                                                                                    
   TITEL  = PAW_PBE Mg_pv 13Apr2007                                                                 
   LULTRA =        F    use ultrasoft PP ?                                                          
   IUNSCR =        1    unscreen: 0-lin 1-nonlin 2-no                                               
   RPACOR =    1.500    partial core radius                                                         
   POMASS =   24.305; ZVAL   =    8.000    mass and valenz                                          
   RCORE  =    2.000    outmost cutoff radius                                                       
   RWIGS  =    2.000; RWIGS  =    1.058    wigner-seitz radius (au A)                               
   ENMAX  =  403.929; ENMIN  =  302.947 eV                                                          
   RCLOC  =    1.506    cutoff for local pot                                                        
   LCOR   =        T    correct aug charges                                                         
   LPAW   =        T    paw PP                                                                      
   EAUG   =  758.780                                                                                
   DEXC   =    0.000                                                                                
   RMAX   =    2.045    core radius for proj-oper                                                   
   RAUG   =    1.300    factor for augmentation sphere                                              
   RDEP   =    2.025    radius for radial grids                                                     
   RDEPT  =    1.557    core radius for aug-charge                                                  
                                                                                                    
   Atomic configuration                                                                             
    5 entries                                                                                       
     n  l   j            E        occ.                                                              
     1  0  0.50     -1259.6230   2.0000                                                             
     2  0  0.50       -79.8442   2.0000                                                             
     2  1  1.50       -46.6121   6.0000                                                             
     3  0  0.50        -4.7055   2.0000                                                             
     3  2  1.50        -1.3606   0.0000                                                             
   Description                                                                                      
     l       E           TYP  RCUT    TYP  RCUT                                                     
     1    -46.6121073     23  1.600                                                                 
     1      2.7211652     23  1.600                                                                 
     0     -4.7054661     23  2.000                                                                 
     0     61.2262170     23  2.000                                                                 
     2     -1.3605826     23  2.000                                                                 
  local pseudopotential read in
  partial core-charges read in
  partial kinetic energy density read in
  atomic valenz-charges read in
  non local Contribution for L=           1  read in
    real space projection operators read in
  non local Contribution for L=           1  read in
    real space projection operators read in
  non local Contribution for L=           0  read in
    real space projection operators read in
  non local Contribution for L=           0  read in
    real space projection operators read in
  non local Contribution for L=           2  read in
    real space projection operators read in
    PAW grid and wavefunctions read in

   number of l-projection  operators is LMAX  =           5
   number of lm-projection operators is LMMAX =          13

 POTCAR:    PAW_PBE O 08Apr2002                   
   SHA256 =  818f92134a0a090dccd8ba1447fa70422a3b330e708bb4f08108d8ae51209ddf O/POTCAR              
   COPYR  = (c) Copyright 08Apr2002 Georg Kresse                                                    
   COPYR  = This file is part of the software VASP. Any use, copying, and all other rights are regul
   COPYR  = If you do not have a valid VASP license, you may not use, copy or distribute this file. 
   VRHFIN =O: s2p4                                                                                  
   LEXCH  = PE                                                                                      
   EATOM  =   432.3788 eV,   31.7789 Ry                                                             
                                                                                                    
   TITEL  = PAW_PBE O 08Apr2002                                                                     
   LULTRA =        F    use ultrasoft PP ?                                                          
   IUNSCR =        1    unscreen: 0-lin 1-nonlin 2-no                                               
   RPACOR =    1.200    partial core radius                                                         
   POMASS =   16.000; ZVAL   =    6.000    mass and valenz                                          
   RCORE  =    1.520    outmost cutoff radius                                                       
   RWIGS  =    1.550; RWIGS  =    0.820    wigner-seitz radius (au A)                               
   ENMAX  =  400.000; ENMIN  =  300.000 eV                                                          
   ICORE  =        2    local potential                                                             
   LCOR   =        T    correct aug charges                                                         
   LPAW   =        T    paw PP                                                                      
   EAUG   =  605.392                                                                                
   DEXC   =    0.000                                                                                
   RMAX   =    1.553    core radius for proj-oper                                                   
   RAUG   =    1.300    factor for augmentation sphere                                              
   RDEP   =    1.550    radius for radial grids                                                     
   RDEPT  =    1.329    core radius for aug-charge                                                  
                                                                                                    
   Atomic configuration                                                                             
    4 entries                                                                                       
     n  l   j            E        occ.                                                              
     1  0  0.50      -514.6923   2.0000                                                             
     2  0  0.50       -23.9615   2.0000                                                             
     2  1  0.50        -9.0305   4.0000                                                             
     3  2  1.50        -9.5241   0.0000                                                             
   Description                                                                                      
     l       E           TYP  RCUT    TYP  RCUT                                                     
     0    -23.9615318     23  1.200                                                                 
     0     -9.5240782     23  1.200                                                                 
     1     -9.0304911     23  1.520                                                                 
     1      8.1634956     23  1.520                                                                 
     2     -9.5240782      7  1.500                                                                 
  local pseudopotential read in
  partial core-charges read in
  partial kinetic energy density read in
  kinetic energy density of atom read in
  atomic valenz-charges read in
  non local Contribution for L=           0  read in
    real space projection operators read in
  non local Contribution for L=           0  read in
    real space projection operators read in
  non local Contribution for L=           1  read in
    real space projection operators read in
  non local Contribution for L=           1  read in
    real space projection operators read in
    PAW grid and wavefunctions read in

   number of l-projection  operators is LMAX  =           4
   number of lm-projection operators is LMMAX =           8

 -----------------------------------------------------------------------------
|                                                                             |
|               ----> ADVICE to this user running VASP <----                  |
|                                                                             |
|     You have a (more or less) 'large supercell' and for larger cells it     |
|     might be more efficient to use real-space projection operators.         |
|     Therefore, try LREAL= Auto in the INCAR file.                           |
|     Mind: For very accurate calculation, you might also keep the            |
|     reciprocal projection scheme (i.e. LREAL=.FALSE.).                      |
|                                                                             |
 -----------------------------------------------------------------------------

 -----------------------------------------------------------------------------
|                                                                             |
|               ----> ADVICE to this user running VASP <----                  |
|                                                                             |
|     You enforced a specific xc type in the INCAR file but a different       |
|     type was found in the POTCAR file.                                      |
|     I HOPE YOU KNOW WHAT YOU ARE DOING!                                     |
|                                                                             |
 -----------------------------------------------------------------------------

  PAW_PBE C 08Apr2002                   :
 energy of atom  1       EATOM= -147.1560
 kinetic energy error for atom=    0.0057 (will be added to EATOM!!)
  PAW_PBE H 15Jun2001                   :
 energy of atom  2       EATOM=  -12.4884
 kinetic energy error for atom=    0.0004 (will be added to EATOM!!)
  PAW_PBE Mg_pv 13Apr2007               :
 energy of atom  3       EATOM=-1056.7344
 kinetic energy error for atom=    0.0221 (will be added to EATOM!!)
  PAW_PBE O 08Apr2002                   :
 energy of atom  4       EATOM= -432.3788
 kinetic energy error for atom=    0.0168 (will be added to EATOM!!)


 POSCAR:  C  H Mg  O
  positions in direct lattice
  No initial velocities read in
 exchange correlation table for  LEXCH =       43
   RHO(1)=    0.500       N(1)  =     2000
   RHO(2)=  100.500       N(2)  =     4000



--------------------------------------------------------------------------------------------------------


 ion  position               nearest neighbor table
   1  0.500  0.500  0.796-   3 1.10   2 1.10   4 1.10   5 1.10
   2  0.500  0.606  0.825-   1 1.10
   3  0.500  0.394  0.825-   1 1.10
   4  0.607  0.500  0.766-   1 1.10
   5  0.393  0.500  0.766-   1 1.10
   6  0.000  0.750  0.352-  38 2.11  40 2.11  41 2.11  48 2.11  57 2.11
   7  0.250  0.000  0.352-  39 2.11  40 2.11  41 2.11  49 2.11  56 2.11
   8  0.000  0.000  0.451-  40 2.11  39 2.11  38 2.11  46 2.11  55 2.11  44 2.12
   9  0.250  0.750  0.451-  41 2.11  39 2.11  38 2.11  47 2.11  54 2.11  45 2.12
  10  0.000  0.750  0.550-  61 2.11  45 2.11  44 2.11  52 2.11  38 2.12  42 2.15
  11  0.250  1.000  0.550-  53 2.11  45 2.11  44 2.11  60 2.11  39 2.12  43 2.15
  12  0.000  1.000  0.649-  44 2.11  59 2.11  43 2.11  42 2.11  50 2.11
  13  0.250  0.750  0.649-  45 2.11  58 2.11  43 2.11  51 2.11  42 2.11
  14  0.000  0.250  0.352-  46 2.11  40 2.11  48 2.11  49 2.11  65 2.11
  15  0.250  0.500  0.352-  47 2.11  41 2.11  48 2.11  49 2.11  64 2.11
  16  0.000  0.500  0.451-  48 2.11  46 2.11  47 2.11  38 2.11  63 2.11  52 2.12
  17  0.250  0.250  0.451-  49 2.11  46 2.11  47 2.11  39 2.11  62 2.11  53 2.12
  18  0.000  0.250  0.550-  53 2.11  69 2.11  44 2.11  52 2.11  46 2.12  50 2.15
  19  0.250  0.500  0.550-  68 2.11  45 2.11  53 2.11  52 2.11  47 2.12  51 2.15
  20  0.000  0.500  0.649-  52 2.11  67 2.11  51 2.11  42 2.11  50 2.11
  21  0.250  0.250  0.649-  53 2.11  66 2.11  43 2.11  51 2.11  50 2.11
  22  0.500  0.750  0.352-  54 2.11  41 2.11  56 2.11  57 2.11  64 2.11
  23  0.750  0.000  0.352-  55 2.11  40 2.11  56 2.11  57 2.11  65 2.11
  24  0.500  0.000  0.451-  56 2.11  54 2.11  55 2.11  39 2.11  62 2.11  60 2.12
  25  0.750  0.750  0.451-  57 2.11  54 2.11  55 2.11  38 2.11  63 2.11  61 2.12
  26  0.500  0.750  0.550-  68 2.11  45 2.11  61 2.11  60 2.11  54 2.13  58 2.15
  27  0.750  0.000  0.550-  69 2.11  61 2.11  44 2.11  60 2.11  55 2.12  59 2.15
  28  0.500  1.000  0.649-  66 2.11  58 2.11  60 2.11  43 2.11  59 2.11
  29  0.750  0.750  0.649-  61 2.11  58 2.11  59 2.11  67 2.11  42 2.11
  30  0.500  0.250  0.352-  62 2.11  56 2.11  49 2.11  64 2.11  65 2.11
  31  0.750  0.500  0.352-  63 2.11  57 2.11  48 2.11  64 2.11  65 2.11
  32  0.500  0.500  0.451-  64 2.11  54 2.11  62 2.11  63 2.11  47 2.11  68 2.12
  33  0.750  0.250  0.451-  65 2.11  55 2.11  62 2.11  63 2.11  46 2.11  69 2.12
  34  0.500  0.250  0.550-  68 2.11  53 2.11  69 2.11  60 2.11  62 2.13  66 2.15
  35  0.750  0.500  0.550-  68 2.11  61 2.11  69 2.11  52 2.11  63 2.12  67 2.15
  36  0.500  0.500  0.649-  66 2.11  58 2.11  51 2.11  67 2.11  68 2.12
  37  0.750  0.250  0.649-  69 2.11  66 2.11  59 2.11  67 2.11  50 2.11
  38  0.000  0.750  0.451-   6 2.11   8 2.11   9 2.11  16 2.11  25 2.11  10 2.12
  39  0.250  0.000  0.451-   7 2.11   8 2.11   9 2.11  17 2.11  24 2.11  11 2.12
  40  0.000  0.000  0.352-   8 2.11   7 2.11   6 2.11  14 2.11  23 2.11
  41  0.250  0.750  0.352-   9 2.11   7 2.11   6 2.11  15 2.11  22 2.11
  42  0.000  0.750  0.651-  12 2.11  20 2.11  29 2.11  13 2.11  10 2.15
  43  0.250  0.000  0.651-  21 2.11  13 2.11  12 2.11  28 2.11  11 2.15
  44  0.000  1.000  0.550-  10 2.11  18 2.11  12 2.11  11 2.11  27 2.11   8 2.12
  45  0.250  0.750  0.550-  13 2.11  10 2.11  11 2.11  19 2.11  26 2.11   9 2.12
  46  0.000  0.250  0.451-  14 2.11   8 2.11  16 2.11  17 2.11  33 2.11  18 2.12
  47  0.250  0.500  0.451-  15 2.11   9 2.11  16 2.11  17 2.11  32 2.11  19 2.12
  48  0.000  0.500  0.352-  16 2.11  14 2.11  15 2.11   6 2.11  31 2.11
  49  0.250  0.250  0.352-  17 2.11  14 2.11  15 2.11   7 2.11  30 2.11
  50  0.000  0.250  0.651-  12 2.11  20 2.11  21 2.11  37 2.11  18 2.15
  51  0.250  0.500  0.651-  20 2.11  21 2.11  13 2.11  36 2.11  19 2.15
  52  0.000  0.500  0.550-  20 2.11  10 2.11  18 2.11  19 2.11  35 2.11  16 2.12
  53  0.250  0.250  0.550-  21 2.11  18 2.11  11 2.11  19 2.11  34 2.11  17 2.12
  54  0.500  0.750  0.451-  22 2.11   9 2.11  24 2.11  25 2.11  32 2.11  26 2.13
  55  0.750  0.000  0.451-  23 2.11   8 2.11  24 2.11  25 2.11  33 2.11  27 2.12
  56  0.500  0.000  0.352-  24 2.11  22 2.11  23 2.11   7 2.11  30 2.11
  57  0.750  0.750  0.352-  25 2.11  22 2.11  23 2.11   6 2.11  31 2.11
  58  0.500  0.750  0.651-  28 2.11  13 2.11  29 2.11  36 2.11  26 2.15
  59  0.750  0.000  0.651-  37 2.11  29 2.11  12 2.11  28 2.11  27 2.15
  60  0.500  1.000  0.550-  28 2.11  27 2.11  11 2.11  26 2.11  34 2.11  24 2.12
  61  0.750  0.750  0.550-  29 2.11  10 2.11  27 2.11  35 2.11  26 2.11  25 2.12
  62  0.500  0.250  0.451-  30 2.11  24 2.11  17 2.11  32 2.11  33 2.11  34 2.13
  63  0.750  0.500  0.451-  31 2.11  25 2.11  16 2.11  32 2.11  33 2.11  35 2.12
  64  0.500  0.500  0.352-  32 2.11  22 2.11  30 2.11  31 2.11  15 2.11
  65  0.750  0.250  0.352-  33 2.11  23 2.11  30 2.11  31 2.11  14 2.11
  66  0.500  0.250  0.651-  28 2.11  21 2.11  37 2.11  36 2.11  34 2.15
  67  0.750  0.500  0.651-  20 2.11  29 2.11  37 2.11  36 2.11  35 2.15
  68  0.500  0.500  0.550-  35 2.11  19 2.11  34 2.11  26 2.11  36 2.12  32 2.12
  69  0.750  0.250  0.550-  37 2.11  18 2.11  27 2.11  35 2.11  34 2.11  33 2.12


IMPORTANT INFORMATION: All symmetrisations will be switched off!
NOSYMM: (Re-)initialisation of all symmetry stuff for point group C_1.


----------------------------------------------------------------------------------------

                                     Primitive cell                                     

  volume of cell :    1519.8199

  direct lattice vectors                    reciprocal lattice vectors
     8.440984654  0.000000000  0.000000000     0.118469591  0.000000000  0.000000000
     0.000000000  8.440984654  0.000000000     0.000000000  0.118469591  0.000000000
     0.000000000  0.000000000 21.330738491     0.000000000  0.000000000  0.046880702

  length of vectors
     8.440984654  8.440984654 21.330738491     0.118469591  0.118469591  0.046880702

  position of ions in fractional coordinates (direct lattice)
     0.500000022  0.499997701  0.795765481
     0.499999966  0.606400245  0.825294148
     0.499999960  0.393601765  0.825293628
     0.607088423  0.500000081  0.766452828
     0.392911520  0.500000085  0.766452812
     0.000000000  0.750000000  0.351605267
     0.250000000  0.000000000  0.351605267
     0.000000000  0.000000000  0.450535089
     0.250000000  0.750000000  0.450535089
     0.000000003  0.750032167  0.550141647
     0.249992769  0.999999998  0.550135640
     0.000000010  0.999999991  0.648847037
     0.250116514  0.750097339  0.648710816
     0.000000000  0.250000000  0.351605267
     0.250000000  0.500000000  0.351605267
     0.000000000  0.500000000  0.450535089
     0.250000000  0.250000000  0.450535089
     0.000000007  0.249967822  0.550141651
     0.250108445  0.500000001  0.550153757
     0.000000011  0.499999994  0.648675549
     0.250116504  0.249902631  0.648710813
     0.500000000  0.750000000  0.351605267
     0.750000000  0.000000000  0.351605267
     0.500000000  0.000000000  0.450535089
     0.750000000  0.750000000  0.450535089
     0.499999994  0.749901112  0.550182719
     0.750007254  0.000000005  0.550135636
     0.500000006  0.999999998  0.648747779
     0.749883526  0.750097344  0.648710829
     0.500000000  0.250000000  0.351605267
     0.750000000  0.500000000  0.351605267
     0.500000000  0.500000000  0.450535089
     0.750000000  0.250000000  0.450535089
     0.500000001  0.250098874  0.550182703
     0.749891587  0.499999991  0.550153763
     0.500000014  0.499999988  0.649279172
     0.749883523  0.249902625  0.648710829
     0.000000000  0.750000000  0.450535089
     0.250000000  0.000000000  0.450535089
     0.000000000  0.000000000  0.351605267
     0.250000000  0.750000000  0.351605267
     0.000000011  0.750041776  0.650981394
     0.249939864  0.000000003  0.651016895
     0.000000015  0.999999981  0.549923091
     0.249924098  0.750012792  0.549866046
     0.000000000  0.250000000  0.450535089
     0.250000000  0.500000000  0.450535089
     0.000000000  0.500000000  0.351605267
     0.250000000  0.250000000  0.351605267
     0.000000016  0.249958209  0.650981374
     0.249749451  0.499999982  0.651002082
     0.000000017  0.500000002  0.549828664
     0.249924102  0.249987198  0.549866042
     0.500000000  0.750000000  0.450535089
     0.750000000  0.000000000  0.450535089
     0.500000000  0.000000000  0.351605267
     0.750000000  0.750000000  0.351605267
     0.500000003  0.750141602  0.650762171
     0.750060174  0.000000004  0.651016901
     0.500000013  0.999999987  0.549819177
     0.750075914  0.750012790  0.549866047
     0.500000000  0.250000000  0.450535089
     0.750000000  0.500000000  0.450535089
     0.500000000  0.500000000  0.351605267
     0.750000000  0.250000000  0.351605267
     0.500000004  0.249858388  0.650762164
     0.750250597  0.499999987  0.651002086
     0.500000017  0.499999992  0.549996743
     0.750075901  0.249987189  0.549866047

  ion indices of the primitive-cell ions
   primitive index   ion index
                 1           1
                 2           2
                 3           3
                 4           4
                 5           5
                 6           6
                 7           7
                 8           8
                 9           9
                10          10
                11          11
                12          12
                13          13
                14          14
                15          15
                16          16
                17          17
                18          18
                19          19
                20          20
                21          21
                22          22
                23          23
                24          24
                25          25
                26          26
                27          27
                28          28
                29          29
                30          30
                31          31
                32          32
                33          33
                34          34
                35          35
                36          36
                37          37
                38          38
                39          39
                40          40
                41          41
                42          42
                43          43
                44          44
                45          45
                46          46
                47          47
                48          48
                49          49
                50          50
                51          51
                52          52
                53          53
                54          54
                55          55
                56          56
                57          57
                58          58
                59          59
                60          60
                61          61
                62          62
                63          63
                64          64
                65          65
                66          66
                67          67
                68          68
                69          69

----------------------------------------------------------------------------------------



 KPOINTS: pymatgen v2020.8.13 with grid density = 

Automatic generation of k-mesh.
 Grid dimensions read from file:
 generate k-points for:    2    2    1

 Generating k-lattice:

  Cartesian coordinates                     Fractional coordinates (reciprocal lattice)
     0.059234796  0.000000000  0.000000000     0.500000000  0.000000000  0.000000000
     0.000000000  0.059234796  0.000000000     0.000000000  0.500000000  0.000000000
     0.000000000  0.000000000  0.046880702     0.000000000  0.000000000  1.000000000

  Length of vectors
     0.059234796  0.059234796  0.046880702

  Shift w.r.t. Gamma in fractional coordinates (k-lattice)
     0.000000000  0.000000000  0.000000000

 
 Subroutine IBZKPT returns following result:
 ===========================================
 
 Found      4 irreducible k-points:
 
 Following reciprocal coordinates:
            Coordinates               Weight
  0.000000  0.000000  0.000000      1.000000
  0.500000  0.000000  0.000000      1.000000
  0.000000  0.500000  0.000000      1.000000
  0.500000  0.500000  0.000000      1.000000
 
 Following cartesian coordinates:
            Coordinates               Weight
  0.000000  0.000000  0.000000      1.000000
  0.059235  0.000000  0.000000      1.000000
  0.000000  0.059235  0.000000      1.000000
  0.059235  0.059235  0.000000      1.000000
 


--------------------------------------------------------------------------------------------------------




 Dimension of arrays:
   k-points           NKPTS =      4   k-points in BZ     NKDIM =      4   number of bands    NBANDS=    320
   number of dos      NEDOS =    301   number of ions     NIONS =     69
   non local maximal  LDIM  =      5   non local SUM 2l+1 LMDIM =     13
   total plane-waves  NPLWV = 882000
   max r-space proj   IRMAX =      1   max aug-charges    IRDMAX=  11635
   dimension x,y,z NGX =    70 NGY =   70 NGZ =  180
   dimension x,y,z NGXF=   140 NGYF=  140 NGZF=  360
   support grid    NGXF=   140 NGYF=  140 NGZF=  360
   ions per type =               1   4  32  32
   NGX,Y,Z   is equivalent  to a cutoff of  13.79, 13.79, 14.03 a.u.
   NGXF,Y,Z  is equivalent  to a cutoff of  27.57, 27.57, 28.06 a.u.

 SYSTEM =  MgO-rocksalt                            
 POSCAR =   C  H Mg  O                             

--------------------------------------------------------------------------------------------------------


  energy-cutoff  :      600.00
  volume of cell :     1519.82
      direct lattice vectors                 reciprocal lattice vectors
     8.440984654  0.000000000  0.000000000     0.118469591  0.000000000  0.000000000
     0.000000000  8.440984654  0.000000000     0.000000000  0.118469591  0.000000000
     0.000000000  0.000000000 21.330738491     0.000000000  0.000000000  0.046880702

  length of vectors
     8.440984654  8.440984654 21.330738491     0.118469591  0.118469591  0.046880702



 k-points in units of 2pi/SCALE and weight: pymatgen v2020.8.13 with grid density = 
   0.00000000  0.00000000  0.00000000       0.250
   0.05923480  0.00000000  0.00000000       0.250
   0.00000000  0.05923480  0.00000000       0.250
   0.05923480  0.05923480  0.00000000       0.250

 k-points in reciprocal lattice and weights: pymatgen v2020.8.13 with grid density = 
   0.00000000  0.00000000  0.00000000       0.250
   0.50000000  0.00000000  0.00000000       0.250
   0.00000000  0.50000000  0.00000000       0.250
   0.50000000  0.50000000  0.00000000       0.250

 position of ions in fractional coordinates (direct lattice) 
   0.50000002  0.49999770  0.79576548
   0.49999997  0.60640025  0.82529415
   0.49999996  0.39360177  0.82529363
   0.60708842  0.50000008  0.76645283
   0.39291152  0.50000009  0.76645281
   0.00000000  0.75000000  0.35160527
   0.25000000  0.00000000  0.35160527
   0.00000000  0.00000000  0.45053509
   0.25000000  0.75000000  0.45053509
   0.00000000  0.75003217  0.55014165
   0.24999277  1.00000000  0.55013564
   0.00000001  0.99999999  0.64884704
   0.25011651  0.75009734  0.64871082
   0.00000000  0.25000000  0.35160527
   0.25000000  0.50000000  0.35160527
   0.00000000  0.50000000  0.45053509
   0.25000000  0.25000000  0.45053509
   0.00000001  0.24996782  0.55014165
   0.25010844  0.50000000  0.55015376
   0.00000001  0.49999999  0.64867555
   0.25011650  0.24990263  0.64871081
   0.50000000  0.75000000  0.35160527
   0.75000000  0.00000000  0.35160527
   0.50000000  0.00000000  0.45053509
   0.75000000  0.75000000  0.45053509
   0.49999999  0.74990111  0.55018272
   0.75000725  0.00000001  0.55013564
   0.50000001  1.00000000  0.64874778
   0.74988353  0.75009734  0.64871083
   0.50000000  0.25000000  0.35160527
   0.75000000  0.50000000  0.35160527
   0.50000000  0.50000000  0.45053509
   0.75000000  0.25000000  0.45053509
   0.50000000  0.25009887  0.55018270
   0.74989159  0.49999999  0.55015376
   0.50000001  0.49999999  0.64927917
   0.74988352  0.24990262  0.64871083
   0.00000000  0.75000000  0.45053509
   0.25000000  0.00000000  0.45053509
   0.00000000  0.00000000  0.35160527
   0.25000000  0.75000000  0.35160527
   0.00000001  0.75004178  0.65098139
   0.24993986  0.00000000  0.65101690
   0.00000001  0.99999998  0.54992309
   0.24992410  0.75001279  0.54986605
   0.00000000  0.25000000  0.45053509
   0.25000000  0.50000000  0.45053509
   0.00000000  0.50000000  0.35160527
   0.25000000  0.25000000  0.35160527
   0.00000002  0.24995821  0.65098137
   0.24974945  0.49999998  0.65100208
   0.00000002  0.50000000  0.54982866
   0.24992410  0.24998720  0.54986604
   0.50000000  0.75000000  0.45053509
   0.75000000  0.00000000  0.45053509
   0.50000000  0.00000000  0.35160527
   0.75000000  0.75000000  0.35160527
   0.50000000  0.75014160  0.65076217
   0.75006017  0.00000000  0.65101690
   0.50000001  0.99999999  0.54981918
   0.75007591  0.75001279  0.54986605
   0.50000000  0.25000000  0.45053509
   0.75000000  0.50000000  0.45053509
   0.50000000  0.50000000  0.35160527
   0.75000000  0.25000000  0.35160527
   0.50000000  0.24985839  0.65076216
   0.75025060  0.49999999  0.65100209
   0.50000002  0.49999999  0.54999674
   0.75007590  0.24998719  0.54986605

 position of ions in cartesian coordinates  (Angst):
   4.22049251  4.22047292 16.97426537
   4.22049204  5.11861516 17.60413364
   4.22049199  3.32238646 17.60412255
   5.12442406  4.22049301 16.34900485
   3.31656011  4.22049305 16.34900449
   0.00000000  6.33073849  7.50000000
   2.11024616  0.00000000  7.50000000
   0.00000000  0.00000000  9.61024616
   2.11024616  6.33073849  9.61024616
   0.00000002  6.33101002 11.73492761
   2.11018512  8.44098464 11.73479947
   0.00000009  8.44098458 13.84038647
   2.11122966  6.33156013 13.83748077
   0.00000000  2.11024616  7.50000000
   2.11024616  4.22049233  7.50000000
   0.00000000  4.22049233  9.61024616
   2.11024616  2.11024616  9.61024616
   0.00000006  2.10997455 11.73492769
   2.11116154  4.22049233 11.73518592
   0.00000009  4.22049228 13.83672850
   2.11122957  2.10942427 13.83748070
   4.22049233  6.33073849  7.50000000
   6.33073849  0.00000000  7.50000000
   4.22049233  0.00000000  9.61024616
   6.33073849  6.33073849  9.61024616
   4.22049228  6.32990378 11.73580370
   6.33079972  0.00000005 11.73479938
   4.22049238  8.44098463 13.83826923
   6.32975533  6.33156017 13.83748104
   4.22049233  2.11024616  7.50000000
   6.33073849  4.22049233  7.50000000
   4.22049233  4.22049233  9.61024616
   6.33073849  2.11024616  9.61024616
   4.22049233  2.11108076 11.73580336
   6.32982338  4.22049225 11.73518604
   4.22049245  4.22049223 13.84960423
   6.32975531  2.10942422 13.83748104
   0.00000000  6.33073849  9.61024616
   2.11024616  0.00000000  9.61024616
   0.00000000  0.00000000  7.50000000
   2.11024616  6.33073849  7.50000000
   0.00000009  6.33109112 13.88591387
   2.10973855  0.00000002 13.88667115
   0.00000012  8.44098449 11.73026565
   2.10960548  6.33084647 11.72904882
   0.00000000  2.11024616  9.61024616
   2.11024616  4.22049233  9.61024616
   0.00000000  4.22049233  7.50000000
   2.11024616  2.11024616  7.50000000
   0.00000014  2.10989341 13.88591345
   2.10813128  4.22049217 13.88635517
   0.00000014  4.22049235 11.72825144
   2.10960551  2.11013810 11.72904875
   4.22049233  6.33073849  9.61024616
   6.33073849  0.00000000  9.61024616
   4.22049233  0.00000000  7.50000000
   6.33073849  6.33073849  7.50000000
   4.22049236  6.33193375 13.88123768
   6.33124642  0.00000003 13.88667128
   4.22049244  8.44098455 11.72804908
   6.33137928  6.33084645 11.72904886
   4.22049233  2.11024616  9.61024616
   6.33073849  4.22049233  9.61024616
   4.22049233  4.22049233  7.50000000
   6.33073849  2.11024616  7.50000000
   4.22049236  2.10905082 13.88123754
   6.33285378  4.22049222 13.88635524
   4.22049247  4.22049226 11.73183669
   6.33137917  2.11013802 11.72904886



--------------------------------------------------------------------------------------------------------

--------------------------------------- Iteration      FINAL  ---------------------------------------


--------------------OUTCAR has been truncated-------------------------


--------------------OUTCAR has been truncated-------------------------


--------------------OUTCAR has been truncated-------------------------


--------------------OUTCAR has been truncated-------------------------


--------------------OUTCAR has been truncated-------------------------


--------------------OUTCAR has been truncated-------------------------


--------------------OUTCAR has been truncated-------------------------


--------------------OUTCAR has been truncated-------------------------


--------------------OUTCAR has been truncated-------------------------


--------------------OUTCAR has been truncated-------------------------


  FORCE on cell =-STRESS in cart. coord.  units (eV):
  Direction    XX          YY          ZZ          XY          YZ          ZX
  --------------------------------------------------------------------------------------
  Alpha Z   899.97440   899.97440   899.97440
  Ewald  158472.03545158469.55949************    -0.00000    -0.00268    -0.00001
  Hartree168642.68539168641.40263************    -0.00000    -0.00011     0.00002
  E(xc)   -2483.06476 -2483.07629 -2483.31330     0.00000    -0.00001    -0.00000
  Local  ************************337065.50067     0.00001     0.00186    -0.00003
  n-local -2847.84437 -2847.83664 -2867.51974     0.00000     0.00008     0.00000
  augment  1051.82794  1051.83017  1042.41132    -0.00000     0.00001     0.00000
  Kinetic  7404.98355  7405.05162  7443.82512    -0.00001     0.00011    -0.00000
  Fock        0.00000     0.00000     0.00000     0.00000     0.00000     0.00000
  -------------------------------------------------------------------------------------
  Total     -30.41582   -30.43269    -4.01690     0.00000    -0.00074    -0.00002
  in kB     -32.06402   -32.08181    -4.23457     0.00000    -0.00078    -0.00002
  external pressure =      -22.79 kB  Pullay stress =        0.00 kB


 VOLUME and BASIS-vectors are now :
 -----------------------------------------------------------------------------
  energy-cutoff  :      600.00
  volume of cell :     1519.82
      direct lattice vectors                 reciprocal lattice vectors
     8.440984654  0.000000000  0.000000000     0.118469591  0.000000000  0.000000000
     0.000000000  8.440984654  0.000000000     0.000000000  0.118469591  0.000000000
     0.000000000  0.000000000 21.330738491     0.000000000  0.000000000  0.046880702

  length of vectors
     8.440984654  8.440984654 21.330738491     0.118469591  0.118469591  0.046880702


 FORCES acting on ions:
    Electron-Ion                     Ewald-Force                    Non-Local-Force
 -----------------------------------------------------------------------------------------------
   0.993E-05 -.828E-03 -.932E+03   -.191E-04 0.142E-02 0.932E+03   -.166E-04 0.865E-03 -.104E+00
   0.203E-04 -.428E+02 -.230E+03   -.216E-04 0.474E+02 0.234E+03   0.285E-05 -.456E+01 -.319E+01
   0.230E-04 0.428E+02 -.230E+03   -.245E-04 -.474E+02 0.234E+03   0.319E-05 0.456E+01 -.319E+01
   -.430E+02 -.828E-03 -.236E+03   0.477E+02 0.885E-03 0.232E+03   -.462E+01 -.121E-03 0.308E+01
   0.430E+02 -.830E-03 -.236E+03   -.477E+02 0.887E-03 0.232E+03   0.462E+01 -.121E-03 0.308E+01
   0.358E-05 -.144E+00 0.208E+04   -.251E-05 0.144E+00 -.207E+04   -.168E-05 -.425E-03 -.680E+01
   0.139E+00 0.246E-05 0.208E+04   -.139E+00 -.297E-05 -.207E+04   0.107E-03 0.217E-05 -.679E+01
   0.668E-05 -.557E-06 0.707E+03   -.610E-05 0.103E-05 -.707E+03   0.136E-05 -.102E-05 0.509E+00
   0.554E+00 -.602E+00 0.708E+03   -.553E+00 0.602E+00 -.709E+03   -.565E-03 -.125E-03 0.487E+00
   0.162E-04 -.232E+01 -.652E+03   -.193E-04 0.232E+01 0.653E+03   -.173E-05 -.226E-02 -.170E+00
   0.230E+01 0.387E-04 -.652E+03   -.229E+01 -.401E-04 0.653E+03   -.789E-02 -.162E-06 -.154E+00
   -.171E-04 0.622E-04 -.201E+04   0.194E-04 -.665E-04 0.201E+04   0.362E-05 0.115E-05 0.573E+01
   0.147E+02 -.148E+02 -.199E+04   -.146E+02 0.149E+02 0.199E+04   -.352E-01 -.431E-01 0.575E+01
   0.664E-05 0.144E+00 0.208E+04   -.234E-05 -.144E+00 -.207E+04   -.355E-06 0.425E-03 -.680E+01
   0.145E+00 -.450E-05 0.208E+04   -.144E+00 0.287E-05 -.207E+04   -.907E-03 -.131E-05 -.679E+01
   0.137E-04 -.542E-06 0.708E+03   -.154E-04 -.836E-06 -.709E+03   0.311E-05 -.240E-06 0.468E+00
   0.554E+00 0.602E+00 0.708E+03   -.553E+00 -.602E+00 -.709E+03   -.564E-03 0.125E-03 0.487E+00
   0.349E-04 0.232E+01 -.652E+03   -.348E-04 -.232E+01 0.653E+03   -.139E-05 0.225E-02 -.170E+00
   0.388E+01 -.161E-04 -.646E+03   -.386E+01 0.167E-04 0.646E+03   -.228E-01 -.229E-05 -.182E+00
   -.370E-04 -.545E-04 -.200E+04   0.334E-04 0.567E-04 0.199E+04   0.302E-05 -.130E-05 0.572E+01
   0.147E+02 0.148E+02 -.199E+04   -.146E+02 -.149E+02 0.199E+04   -.352E-01 0.431E-01 0.575E+01
   -.357E-05 -.149E+00 0.208E+04   0.274E-05 0.149E+00 -.207E+04   -.551E-06 0.604E-03 -.680E+01
   -.139E+00 0.105E-05 0.208E+04   0.139E+00 -.330E-05 -.207E+04   -.109E-03 -.531E-06 -.679E+01
   -.379E-05 0.240E-04 0.708E+03   0.536E-05 -.265E-04 -.709E+03   -.678E-06 0.149E-05 0.455E+00
   -.554E+00 -.602E+00 0.708E+03   0.553E+00 0.602E+00 -.709E+03   0.567E-03 -.125E-03 0.487E+00
   -.654E-04 -.395E+01 -.646E+03   0.685E-04 0.393E+01 0.646E+03   -.437E-05 0.178E-01 -.308E+00
   -.230E+01 0.763E-04 -.652E+03   0.229E+01 -.769E-04 0.653E+03   0.788E-02 0.159E-05 -.154E+00
   -.522E-04 0.151E-03 -.200E+04   0.492E-04 -.141E-03 0.200E+04   0.601E-05 -.859E-05 0.574E+01
   -.147E+02 -.148E+02 -.199E+04   0.146E+02 0.149E+02 0.199E+04   0.352E-01 -.431E-01 0.575E+01
   -.604E-05 0.149E+00 0.208E+04   0.235E-05 -.149E+00 -.207E+04   -.145E-05 -.604E-03 -.680E+01
   -.145E+00 -.155E-05 0.208E+04   0.144E+00 0.313E-05 -.207E+04   0.905E-03 -.669E-06 -.679E+01
   -.150E-04 -.240E-04 0.709E+03   0.163E-04 0.270E-04 -.710E+03   0.562E-06 -.673E-06 0.514E+00
   -.554E+00 0.602E+00 0.708E+03   0.553E+00 -.602E+00 -.709E+03   0.566E-03 0.124E-03 0.487E+00
   -.262E-04 0.395E+01 -.646E+03   0.282E-04 -.393E+01 0.646E+03   -.539E-05 -.178E-01 -.308E+00
   -.388E+01 -.255E-04 -.646E+03   0.386E+01 0.286E-04 0.646E+03   0.228E-01 -.267E-05 -.182E+00
   -.518E-04 -.254E-03 -.195E+04   0.463E-04 0.238E-03 0.194E+04   0.526E-05 0.112E-04 0.569E+01
   -.147E+02 0.148E+02 -.199E+04   0.146E+02 -.149E+02 0.199E+04   0.352E-01 0.431E-01 0.575E+01
   0.106E-04 -.437E+00 0.530E+03   -.831E-05 0.430E+00 -.530E+03   -.585E-07 0.892E-02 -.959E-01
   0.427E+00 0.822E-05 0.530E+03   -.419E+00 -.932E-05 -.530E+03   -.116E-01 -.906E-06 -.921E-01
   -.498E-06 -.900E-06 0.156E+04   -.130E-05 -.115E-05 -.156E+04   0.236E-05 0.127E-05 0.360E+01
   0.106E+00 -.110E+00 0.156E+04   -.105E+00 0.110E+00 -.156E+04   -.708E-03 0.532E-04 0.360E+01
   -.253E-04 -.613E+01 -.153E+04   0.279E-04 0.612E+01 0.153E+04   -.161E-05 0.842E-02 -.512E+01
   0.588E+01 0.106E-03 -.153E+04   -.587E+01 -.109E-03 0.153E+04   -.336E-02 -.114E-06 -.513E+01
   0.134E-04 -.184E-05 -.486E+03   -.150E-04 -.190E-05 0.485E+03   -.187E-05 0.256E-05 0.246E+00
   0.229E+01 -.230E+01 -.481E+03   -.227E+01 0.230E+01 0.481E+03   -.171E-01 0.609E-02 0.282E+00
   0.602E-05 0.437E+00 0.530E+03   -.942E-05 -.430E+00 -.530E+03   0.919E-06 -.893E-02 -.959E-01
   0.462E+00 -.933E-05 0.531E+03   -.470E+00 0.758E-05 -.531E+03   0.111E-01 -.144E-05 -.940E-01
   0.444E-05 -.453E-06 0.156E+04   -.224E-05 0.108E-05 -.156E+04   -.910E-06 0.132E-05 0.360E+01
   0.106E+00 0.110E+00 0.156E+04   -.105E+00 -.110E+00 -.156E+04   -.708E-03 -.541E-04 0.360E+01
   0.285E-05 0.613E+01 -.153E+04   -.101E-05 -.612E+01 0.153E+04   -.128E-05 -.842E-02 -.512E+01
   0.189E+02 -.100E-03 -.150E+04   -.188E+02 0.934E-04 0.151E+04   -.591E-01 0.993E-05 -.509E+01
   0.942E-05 -.415E-05 -.481E+03   -.963E-05 0.212E-05 0.481E+03   -.183E-05 0.137E-05 0.295E+00
   0.229E+01 0.230E+01 -.481E+03   -.227E+01 -.230E+01 0.481E+03   -.171E-01 -.610E-02 0.282E+00
   -.101E-04 -.475E+00 0.531E+03   0.130E-04 0.485E+00 -.531E+03   -.129E-05 -.142E-01 -.105E+00
   -.427E+00 0.793E-05 0.530E+03   0.419E+00 -.137E-04 -.530E+03   0.116E-01 0.602E-06 -.921E-01
   -.113E-05 0.975E-06 0.156E+04   0.137E-05 -.357E-05 -.156E+04   0.577E-06 0.906E-06 0.360E+01
   -.106E+00 -.110E+00 0.156E+04   0.105E+00 0.110E+00 -.156E+04   0.708E-03 0.541E-04 0.360E+01
   -.483E-04 -.187E+02 -.150E+04   0.541E-04 0.186E+02 0.151E+04   -.113E-05 0.691E-01 -.516E+01
   -.588E+01 0.117E-03 -.153E+04   0.587E+01 -.118E-03 0.153E+04   0.336E-02 -.189E-06 -.513E+01
   -.212E-04 0.318E-04 -.482E+03   0.246E-04 -.343E-04 0.481E+03   -.241E-05 -.349E-06 0.257E+00
   -.229E+01 -.230E+01 -.481E+03   0.227E+01 0.230E+01 0.481E+03   0.171E-01 0.609E-02 0.282E+00
   -.982E-05 0.475E+00 0.531E+03   0.802E-05 -.485E+00 -.531E+03   0.715E-07 0.142E-01 -.105E+00
   -.462E+00 -.767E-05 0.531E+03   0.470E+00 0.103E-04 -.531E+03   -.111E-01 0.221E-05 -.941E-01
   -.640E-05 -.199E-05 0.156E+04   0.236E-05 0.350E-05 -.156E+04   0.147E-05 -.221E-05 0.360E+01
   -.106E+00 0.110E+00 0.156E+04   0.105E+00 -.110E+00 -.156E+04   0.708E-03 -.523E-04 0.360E+01
   -.286E-04 0.187E+02 -.150E+04   0.290E-04 -.186E+02 0.151E+04   0.502E-06 -.691E-01 -.516E+01
   -.189E+02 -.897E-04 -.150E+04   0.188E+02 0.859E-04 0.151E+04   0.591E-01 0.606E-05 -.509E+01
   -.280E-04 -.334E-04 -.477E+03   0.316E-04 0.362E-04 0.477E+03   -.450E-05 0.283E-05 0.120E+00
   -.229E+01 0.230E+01 -.481E+03   0.227E+01 -.230E+01 0.481E+03   0.171E-01 -.609E-02 0.282E+00
 -----------------------------------------------------------------------------------------------
   0.262E-04 -.121E-02 0.175E+02   -.345E-12 -.114E-12 -.284E-12   -.181E-04 0.120E-02 -.175E+02


 POSITION                                       TOTAL-FORCE (eV/Angst)
 -----------------------------------------------------------------------------------
      4.22049      4.22047     16.97427        -0.000026      0.001450      0.032055
      4.22049      5.11862     17.60413         0.000001      0.012645      0.006377
      4.22049      3.32239     17.60412         0.000002     -0.013966      0.007210
      5.12442      4.22049     16.34900         0.033859     -0.000064     -0.012143
      3.31656      4.22049     16.34900        -0.033836     -0.000065     -0.012130
      0.00000      6.33074      7.50000        -0.000001      0.000111      0.318867
      2.11025      0.00000      7.50000         0.000019      0.000002      0.318820
      0.00000      0.00000      9.61025         0.000002     -0.000000      0.041471
      2.11025      6.33074      9.61025         0.000660     -0.000074      0.042189
      0.00000      6.33101     11.73493        -0.000005     -0.002971      0.027678
      2.11019      8.44098     11.73480         0.004054     -0.000001      0.027625
      0.00000      8.44098     13.84039         0.000006     -0.000003      0.026790
      2.11123      6.33156     13.83748        -0.005238      0.005992      0.023504
      0.00000      2.11025      7.50000         0.000004     -0.000112      0.318857
      2.11025      4.22049      7.50000         0.000287     -0.000003      0.318890
      0.00000      4.22049      9.61025         0.000001     -0.000002      0.043979
      2.11025      2.11025      9.61025         0.000658      0.000074      0.042188
      0.00000      2.10997     11.73493        -0.000001      0.002970      0.027676
      2.11116      4.22049     11.73519        -0.001120     -0.000002      0.033682
      0.00000      4.22049     13.83673        -0.000001      0.000001      0.029847
      2.11123      2.10942     13.83748        -0.005230     -0.005991      0.023509
      4.22049      6.33074      7.50000        -0.000002     -0.000160      0.319438
      6.33074      0.00000      7.50000        -0.000021     -0.000003      0.318809
      4.22049      0.00000      9.61025         0.000001     -0.000001      0.046017
      6.33074      6.33074      9.61025        -0.000659     -0.000075      0.042193
      4.22049      6.32990     11.73580        -0.000002      0.002668      0.031656
      6.33080      0.00000     11.73480        -0.004059      0.000001      0.027624
      4.22049      8.44098     13.83827         0.000003      0.000002      0.024606
      6.32976      6.33156     13.83748         0.005235      0.005994      0.023506
      4.22049      2.11025      7.50000        -0.000005      0.000159      0.319436
      6.33074      4.22049      7.50000        -0.000287      0.000001      0.318894
      4.22049      4.22049      9.61025         0.000002      0.000002      0.046899
      6.33074      2.11025      9.61025        -0.000654      0.000073      0.042190
      4.22049      2.11108     11.73580        -0.000004     -0.002663      0.031661
      6.32982      4.22049     11.73519         0.001115      0.000001      0.033682
      4.22049      4.22049     13.84960        -0.000000     -0.000005      0.021039
      6.32976      2.10942     13.83748         0.005232     -0.005988      0.023507
      0.00000      6.33074      9.61025         0.000002      0.002479      0.066987
      2.11025      0.00000      9.61025        -0.003358     -0.000002      0.067629
      0.00000      0.00000      7.50000         0.000000     -0.000001     -0.402304
      2.11025      6.33074      7.50000        -0.000195      0.000012     -0.402364
      0.00000      6.33109     13.88591         0.000001     -0.003633     -0.093853
      2.10974      0.00000     13.88667         0.003540     -0.000003     -0.099240
      0.00000      8.44098     11.73027        -0.000004     -0.000001      0.003579
      2.10961      6.33085     11.72905        -0.000245     -0.000141      0.010132
      0.00000      2.11025      9.61025        -0.000003     -0.002476      0.066989
      2.11025      4.22049      9.61025         0.002967     -0.000003      0.069011
      0.00000      4.22049      7.50000         0.000001      0.000002     -0.402101
      2.11025      2.11025      7.50000        -0.000196     -0.000011     -0.402363
      0.00000      2.10989     13.88591         0.000000      0.003634     -0.093851
      2.10813      4.22049     13.88636        -0.004278      0.000003     -0.092479
      0.00000      4.22049     11.72825        -0.000002     -0.000001      0.015880
      2.10961      2.11014     11.72905        -0.000244      0.000145      0.010132
      4.22049      6.33074      9.61025         0.000001     -0.003910      0.068706
      6.33074      0.00000      9.61025         0.003363     -0.000005      0.067630
      4.22049      0.00000      7.50000         0.000001     -0.000002     -0.402517
      6.33074      6.33074      7.50000         0.000196      0.000014     -0.402366
      4.22049      6.33193     13.88124         0.000005      0.006142     -0.092276
      6.33125      0.00000     13.88667        -0.003541     -0.000002     -0.099241
      4.22049      8.44098     11.72805         0.000001     -0.000003      0.012642
      6.33138      6.33085     11.72905         0.000245     -0.000144      0.010131
      4.22049      2.11025      9.61025        -0.000002      0.003905      0.068703
      6.33074      4.22049      9.61025        -0.002964      0.000005      0.069016
      4.22049      4.22049      7.50000        -0.000003     -0.000001     -0.402635
      6.33074      2.11025      7.50000         0.000197     -0.000015     -0.402364
      4.22049      2.10905     13.88124         0.000001     -0.006147     -0.092280
      6.33285      4.22049     13.88636         0.004277      0.000002     -0.092480
      4.22049      4.22049     11.73184        -0.000001      0.000006     -0.000683
      6.33138      2.11014     11.72905         0.000248      0.000149      0.010129
 -----------------------------------------------------------------------------------
    total drift:                                0.000008     -0.000005     -0.014885


--------------------------------------------------------------------------------------------------------



  FREE ENERGIE OF THE ION-ELECTRON SYSTEM (eV)
  ---------------------------------------------------
  free  energy   TOTEN  =      -287.58682871 eV

  energy  without entropy=     -287.58682871  energy(sigma->0) =     -287.58682871



--------------------------------------------------------------------------------------------------------


    POTLOK:  cpu time      2.2860: real time      2.2864


--------------------------------------------------------------------------------------------------------


     LOOP+:  cpu time    162.3620: real time    162.6666
    4ORBIT:  cpu time      0.0000: real time      0.0000

 total amount of memory used by VASP MPI-rank0    67165. kBytes
=======================================================================

   base      :      30000. kBytes
   nonl-proj :      17715. kBytes
   fftplans  :       4923. kBytes
   grid      :       8190. kBytes
   one-center:         73. kBytes
   wavefun   :       6264. kBytes

  
  
 General timing and accounting informations for this job:
 ========================================================
  
                  Total CPU time used (sec):      195.666
                            User time (sec):      193.683
                          System time (sec):        1.983
                         Elapsed time (sec):      206.757
  
                   Maximum memory used (kb):      273436.
                   Average memory used (kb):          N/A
  
                          Minor page faults:        67575
                          Major page faults:           53
                 Voluntary context switches:        13213
