 vasp.6.3.0 20Jan22 (build Apr  1 2022 16:44:48) complex                         
 executed on        HPECrayEX_GCC date 2022.11.13  00:25:06
 running  512 mpi-ranks, with    1 threads/rank
 distrk:  each k-point on  512 cores,    1 groups
 distr:  one band on NCORE=   8 cores,   64 groups


--------------------------------------------------------------------------------------------------------


 INCAR:
   SYSTEM = MgO-rocksalt
   ISMEAR = 0
   SIGMA = 0.05
   EDIFF = 1E-6
   ALGO = ALL
   ISTART = 0
   IBRION = -1
   NSW = 0
   ISYM = 0
   DIPOL = 0.5 0.5 0.5
   IDIPOL = 3
   LDIPOL = .TRUE.
   GGA = PE
   IVDW = 1
   VDW_C6 = 0.63 0.70
   VDW_R0 = 1.243 1.342
   ENCUT = 600
   PREC = Accurate
   LASPH = .TRUE.
   LREAL = .FALSE.
   ISPIN = 1
   NELM = 200
   NELMIN = 8
   NCORE = 8
   KPAR = 1
   LWAVE = .FALSE.
   LCHARG = .FALSE.

 POTCAR:    PAW_PBE Mg_pv 13Apr2007               
 POTCAR:    PAW_PBE O 08Apr2002                   
 POTCAR:    PAW_PBE Mg_pv 13Apr2007               
   SHA256 =  f474ac0dd33840b9ae76c01d57fea79fdf77cdfbb07d5ade72c65f83c709b62b Mg_pv/POTCAR          
   COPYR  = (c) Copyright 13Apr2007 Georg Kresse                                                    
   COPYR  = This file is part of the software VASP. Any use, copying, and all other rights are regul
   COPYR  = If you do not have a valid VASP license, you may not use, copy or distribute this file. 
   VRHFIN =Mg: p6s2                                                                                 
   LEXCH  = PE                                                                                      
   EATOM  =  1056.7344 eV,   77.6678 Ry                                                             
                                                                                                    
   TITEL  = PAW_PBE Mg_pv 13Apr2007                                                                 
   LULTRA =        F    use ultrasoft PP ?                                                          
   IUNSCR =        1    unscreen: 0-lin 1-nonlin 2-no                                               
   RPACOR =    1.500    partial core radius                                                         
   POMASS =   24.305; ZVAL   =    8.000    mass and valenz                                          
   RCORE  =    2.000    outmost cutoff radius                                                       
   RWIGS  =    2.000; RWIGS  =    1.058    wigner-seitz radius (au A)                               
   ENMAX  =  403.929; ENMIN  =  302.947 eV                                                          
   RCLOC  =    1.506    cutoff for local pot                                                        
   LCOR   =        T    correct aug charges                                                         
   LPAW   =        T    paw PP                                                                      
   EAUG   =  758.780                                                                                
   DEXC   =    0.000                                                                                
   RMAX   =    2.045    core radius for proj-oper                                                   
   RAUG   =    1.300    factor for augmentation sphere                                              
   RDEP   =    2.025    radius for radial grids                                                     
   RDEPT  =    1.557    core radius for aug-charge                                                  
                                                                                                    
   Atomic configuration                                                                             
    5 entries                                                                                       
     n  l   j            E        occ.                                                              
     1  0  0.50     -1259.6230   2.0000                                                             
     2  0  0.50       -79.8442   2.0000                                                             
     2  1  1.50       -46.6121   6.0000                                                             
     3  0  0.50        -4.7055   2.0000                                                             
     3  2  1.50        -1.3606   0.0000                                                             
   Description                                                                                      
     l       E           TYP  RCUT    TYP  RCUT                                                     
     1    -46.6121073     23  1.600                                                                 
     1      2.7211652     23  1.600                                                                 
     0     -4.7054661     23  2.000                                                                 
     0     61.2262170     23  2.000                                                                 
     2     -1.3605826     23  2.000                                                                 
  local pseudopotential read in
  partial core-charges read in
  partial kinetic energy density read in
  atomic valenz-charges read in
  non local Contribution for L=           1  read in
    real space projection operators read in
  non local Contribution for L=           1  read in
    real space projection operators read in
  non local Contribution for L=           0  read in
    real space projection operators read in
  non local Contribution for L=           0  read in
    real space projection operators read in
  non local Contribution for L=           2  read in
    real space projection operators read in
    PAW grid and wavefunctions read in

   number of l-projection  operators is LMAX  =           5
   number of lm-projection operators is LMMAX =          13

 POTCAR:    PAW_PBE O 08Apr2002                   
   SHA256 =  818f92134a0a090dccd8ba1447fa70422a3b330e708bb4f08108d8ae51209ddf O/POTCAR              
   COPYR  = (c) Copyright 08Apr2002 Georg Kresse                                                    
   COPYR  = This file is part of the software VASP. Any use, copying, and all other rights are regul
   COPYR  = If you do not have a valid VASP license, you may not use, copy or distribute this file. 
   VRHFIN =O: s2p4                                                                                  
   LEXCH  = PE                                                                                      
   EATOM  =   432.3788 eV,   31.7789 Ry                                                             
                                                                                                    
   TITEL  = PAW_PBE O 08Apr2002                                                                     
   LULTRA =        F    use ultrasoft PP ?                                                          
   IUNSCR =        1    unscreen: 0-lin 1-nonlin 2-no                                               
   RPACOR =    1.200    partial core radius                                                         
   POMASS =   16.000; ZVAL   =    6.000    mass and valenz                                          
   RCORE  =    1.520    outmost cutoff radius                                                       
   RWIGS  =    1.550; RWIGS  =    0.820    wigner-seitz radius (au A)                               
   ENMAX  =  400.000; ENMIN  =  300.000 eV                                                          
   ICORE  =        2    local potential                                                             
   LCOR   =        T    correct aug charges                                                         
   LPAW   =        T    paw PP                                                                      
   EAUG   =  605.392                                                                                
   DEXC   =    0.000                                                                                
   RMAX   =    1.553    core radius for proj-oper                                                   
   RAUG   =    1.300    factor for augmentation sphere                                              
   RDEP   =    1.550    radius for radial grids                                                     
   RDEPT  =    1.329    core radius for aug-charge                                                  
                                                                                                    
   Atomic configuration                                                                             
    4 entries                                                                                       
     n  l   j            E        occ.                                                              
     1  0  0.50      -514.6923   2.0000                                                             
     2  0  0.50       -23.9615   2.0000                                                             
     2  1  0.50        -9.0305   4.0000                                                             
     3  2  1.50        -9.5241   0.0000                                                             
   Description                                                                                      
     l       E           TYP  RCUT    TYP  RCUT                                                     
     0    -23.9615318     23  1.200                                                                 
     0     -9.5240782     23  1.200                                                                 
     1     -9.0304911     23  1.520                                                                 
     1      8.1634956     23  1.520                                                                 
     2     -9.5240782      7  1.500                                                                 
  local pseudopotential read in
  partial core-charges read in
  partial kinetic energy density read in
  kinetic energy density of atom read in
  atomic valenz-charges read in
  non local Contribution for L=           0  read in
    real space projection operators read in
  non local Contribution for L=           0  read in
    real space projection operators read in
  non local Contribution for L=           1  read in
    real space projection operators read in
  non local Contribution for L=           1  read in
    real space projection operators read in
    PAW grid and wavefunctions read in

   number of l-projection  operators is LMAX  =           4
   number of lm-projection operators is LMMAX =           8

 -----------------------------------------------------------------------------
|                                                                             |
|               ----> ADVICE to this user running VASP <----                  |
|                                                                             |
|     You have a (more or less) 'large supercell' and for larger cells it     |
|     might be more efficient to use real-space projection operators.         |
|     Therefore, try LREAL= Auto in the INCAR file.                           |
|     Mind: For very accurate calculation, you might also keep the            |
|     reciprocal projection scheme (i.e. LREAL=.FALSE.).                      |
|                                                                             |
 -----------------------------------------------------------------------------

  PAW_PBE Mg_pv 13Apr2007               :
 energy of atom  1       EATOM=-1056.7344
 kinetic energy error for atom=    0.0221 (will be added to EATOM!!)
  PAW_PBE O 08Apr2002                   :
 energy of atom  2       EATOM= -432.3788
 kinetic energy error for atom=    0.0168 (will be added to EATOM!!)


 POSCAR: Mg  O
  positions in direct lattice
  No initial velocities read in
 exchange correlation table for  LEXCH =        8
   RHO(1)=    0.500       N(1)  =     2000
   RHO(2)=  100.500       N(2)  =     4000



--------------------------------------------------------------------------------------------------------


 ion  position               nearest neighbor table
   1  0.000  0.750  0.352-  33 2.11  35 2.11  36 2.11  43 2.11  52 2.11
   2  0.250  0.000  0.352-  34 2.11  35 2.11  36 2.11  44 2.11  51 2.11
   3  0.000  0.000  0.451-  35 2.11  34 2.11  33 2.11  41 2.11  50 2.11  39 2.12
   4  0.250  0.750  0.451-  36 2.11  34 2.11  33 2.11  42 2.11  49 2.11  40 2.12
   5  1.000  0.750  0.550-  56 2.10  47 2.11  40 2.11  39 2.11  33 2.12  37 2.15
   6  0.250  0.000  0.550-  55 2.11  39 2.11  48 2.11  40 2.12  34 2.12  38 2.15
   7  0.999  1.000  0.649-  54 2.10  45 2.10  37 2.11  39 2.11  38 2.11
   8  0.249  0.753  0.648-  40 2.09  38 2.09  37 2.11  53 2.11  46 2.14
   9  0.000  0.250  0.352-  41 2.11  35 2.11  43 2.11  44 2.11  60 2.11
  10  0.250  0.500  0.352-  42 2.11  36 2.11  43 2.11  44 2.11  59 2.11
  11  0.000  0.500  0.451-  43 2.11  41 2.11  42 2.11  33 2.11  58 2.11  47 2.12
  12  0.250  0.250  0.451-  44 2.11  41 2.11  42 2.11  34 2.11  57 2.11  48 2.12
  13  1.000  0.250  0.550-  64 2.10  48 2.11  47 2.11  39 2.11  41 2.12  45 2.15
  14  0.251  0.500  0.550-  63 2.10  48 2.10  40 2.11  47 2.12  42 2.13  46 2.19
  15  0.997  0.500  0.649-  62 2.07  46 2.09  47 2.10  45 2.12  37 2.12
  16  0.250  0.247  0.648-  38 2.09  48 2.10  61 2.11  45 2.11  46 2.14
  17  0.500  0.750  0.352-  49 2.11  36 2.11  51 2.11  52 2.11  59 2.11
  18  0.750  0.000  0.352-  50 2.11  35 2.11  51 2.11  52 2.11  60 2.11
  19  0.500  0.000  0.451-  51 2.11  49 2.11  50 2.11  34 2.11  57 2.11  55 2.11
  20  0.750  0.750  0.451-  52 2.11  49 2.11  50 2.11  33 2.11  58 2.11  56 2.12
  21  0.500  0.749  0.551-  63 2.10  56 2.11  40 2.12  55 2.12  53 2.13  49 2.13
  22  0.750  1.000  0.550-  55 2.11  64 2.11  56 2.11  39 2.11  50 2.12  54 2.15
  23  0.500  0.000  0.648-  61 2.09  53 2.10  55 2.11  54 2.11  38 2.12
  24  0.750  0.751  0.649-  54 2.10  56 2.11  37 2.11  53 2.11  62 2.12
  25  0.500  0.250  0.352-  57 2.11  51 2.11  44 2.11  59 2.11  60 2.11
  26  0.750  0.500  0.352-  58 2.11  52 2.11  43 2.11  59 2.11  60 2.11
  27  0.500  0.500  0.451-  59 2.11  49 2.11  57 2.11  58 2.11  42 2.11  63 2.14
  28  0.750  0.250  0.451-  60 2.11  50 2.11  57 2.11  58 2.11  41 2.11  64 2.12
  29  0.500  0.251  0.551-  63 2.10  64 2.11  48 2.12  61 2.12  55 2.12  57 2.13
  30  0.749  0.500  0.550-  63 2.11  64 2.11  56 2.11  47 2.12  58 2.13  62 2.15
  31  0.507  0.499  0.654-  62 2.07  61 2.12  53 2.13  63 2.20  46 2.21
  32  0.750  0.249  0.649-  54 2.10  61 2.11  64 2.11  45 2.11  62 2.12
  33  0.000  0.750  0.451-   1 2.11   3 2.11   4 2.11  11 2.11  20 2.11   5 2.12
  34  0.250  0.000  0.451-   2 2.11   3 2.11   4 2.11  12 2.11  19 2.11   6 2.12
  35  0.000  0.000  0.352-   3 2.11   2 2.11   1 2.11   9 2.11  18 2.11
  36  0.250  0.750  0.352-   4 2.11   2 2.11   1 2.11  10 2.11  17 2.11
  37  1.000  0.750  0.651-   7 2.11   8 2.11  24 2.11  15 2.12   5 2.15
  38  0.250  1.000  0.651-   8 2.09  16 2.09   7 2.11  23 2.12   6 2.15
  39  0.000  1.000  0.550-   7 2.11   6 2.11   5 2.11  13 2.11  22 2.11   3 2.12
  40  0.250  0.749  0.550-   8 2.09  14 2.11   5 2.11  21 2.12   6 2.12   4 2.12
  41  0.000  0.250  0.451-   9 2.11   3 2.11  11 2.11  12 2.11  28 2.11  13 2.12
  42  0.250  0.500  0.451-  10 2.11   4 2.11  11 2.11  12 2.11  27 2.11  14 2.13
  43  0.000  0.500  0.352-  11 2.11   9 2.11  10 2.11   1 2.11  26 2.11
  44  0.250  0.250  0.352-  12 2.11   9 2.11  10 2.11   2 2.11  25 2.11
  45  1.000  0.249  0.651-   7 2.10  16 2.11  32 2.11  15 2.12  13 2.15
  46  0.245  0.500  0.653-  15 2.09   8 2.14  16 2.14  14 2.19  31 2.21
  47  0.000  0.500  0.550-  15 2.10   5 2.11  13 2.11  14 2.12  11 2.12  30 2.12
  48  0.250  0.250  0.550-  16 2.10  14 2.10  13 2.11   6 2.11  29 2.12  12 2.12
  49  0.500  0.750  0.451-  17 2.11   4 2.11  19 2.11  20 2.11  27 2.11  21 2.13
  50  0.750  0.000  0.451-  18 2.11   3 2.11  19 2.11  20 2.11  28 2.11  22 2.12
  51  0.500  0.000  0.352-  19 2.11  17 2.11  18 2.11   2 2.11  25 2.11
  52  0.750  0.750  0.352-  20 2.11  17 2.11  18 2.11   1 2.11  26 2.11
  53  0.500  0.751  0.650-  23 2.10   8 2.11  24 2.11  31 2.13  21 2.13
  54  0.750  1.000  0.651-  24 2.10   7 2.10  32 2.10  23 2.11  22 2.15
  55  0.500  1.000  0.550-  23 2.11   6 2.11  22 2.11  19 2.11  21 2.12  29 2.12
  56  0.750  0.750  0.550-   5 2.10  24 2.11  21 2.11  30 2.11  22 2.11  20 2.12
  57  0.500  0.250  0.451-  25 2.11  19 2.11  12 2.11  27 2.11  28 2.11  29 2.13
  58  0.750  0.500  0.451-  26 2.11  20 2.11  11 2.11  27 2.11  28 2.11  30 2.13
  59  0.500  0.500  0.352-  27 2.11  17 2.11  25 2.11  26 2.11  10 2.11
  60  0.750  0.250  0.352-  28 2.11  18 2.11  25 2.11  26 2.11   9 2.11
  61  0.500  0.248  0.650-  23 2.09  16 2.11  32 2.11  29 2.12  31 2.12
  62  0.752  0.500  0.651-  31 2.07  15 2.07  24 2.12  32 2.12  30 2.15
  63  0.499  0.500  0.551-  14 2.10  21 2.10  29 2.10  30 2.11  27 2.14  31 2.20
  64  0.750  0.250  0.550-  13 2.10  30 2.11  22 2.11  32 2.11  29 2.11  28 2.12


IMPORTANT INFORMATION: All symmetrisations will be switched off!
NOSYMM: (Re-)initialisation of all symmetry stuff for point group C_1.


----------------------------------------------------------------------------------------

                                     Primitive cell                                     

  volume of cell :    1519.8199

  direct lattice vectors                    reciprocal lattice vectors
     8.440984654  0.000000000  0.000000000     0.118469591  0.000000000  0.000000000
     0.000000000  8.440984654  0.000000000     0.000000000  0.118469591  0.000000000
     0.000000000  0.000000000 21.330738491     0.000000000  0.000000000  0.046880702

  length of vectors
     8.440984654  8.440984654 21.330738491     0.118469591  0.118469591  0.046880702

  position of ions in fractional coordinates (direct lattice)
     0.000000000  0.750000000  0.351605267
     0.250000000  0.000000000  0.351605267
     0.000000000  0.000000000  0.450535089
     0.250000000  0.750000000  0.450535089
     0.999563908  0.749764684  0.549986305
     0.250127956  0.000116730  0.549798927
     0.999362416  0.999984282  0.648653567
     0.249374068  0.752659422  0.647733904
     0.000000000  0.250000000  0.351605267
     0.250000000  0.500000000  0.351605267
     0.000000000  0.500000000  0.450535089
     0.250000000  0.250000000  0.450535089
     0.999710421  0.250051069  0.550099330
     0.251023676  0.499723648  0.550406439
     0.997370222  0.499714498  0.648632417
     0.250017857  0.247088788  0.648499312
     0.500000000  0.750000000  0.351605267
     0.750000000  0.000000000  0.351605267
     0.500000000  0.000000000  0.450535089
     0.750000000  0.750000000  0.450535089
     0.500213365  0.748833867  0.550505281
     0.749707933  0.999999257  0.549909484
     0.500355013  0.000239253  0.648324023
     0.750054991  0.750771690  0.648584595
     0.500000000  0.250000000  0.351605267
     0.750000000  0.500000000  0.351605267
     0.500000000  0.500000000  0.450535089
     0.750000000  0.250000000  0.450535089
     0.500136856  0.250960236  0.550501652
     0.749039920  0.499813896  0.550375482
     0.506611541  0.499259346  0.654114457
     0.749717086  0.248977173  0.648821437
     0.000000000  0.750000000  0.450535089
     0.250000000  0.000000000  0.450535089
     0.000000000  0.000000000  0.351605267
     0.250000000  0.750000000  0.351605267
     0.999931378  0.750499252  0.650945361
     0.249589581  0.999642836  0.650687451
     0.000097463  0.999854923  0.549722538
     0.249615975  0.749330324  0.549963429
     0.000000000  0.250000000  0.450535089
     0.250000000  0.500000000  0.450535089
     0.000000000  0.500000000  0.351605267
     0.250000000  0.250000000  0.351605267
     0.999904773  0.249193479  0.650954252
     0.244735580  0.500114000  0.653183369
     0.000447101  0.499963904  0.549981854
     0.249531303  0.250491217  0.550060919
     0.500000000  0.750000000  0.450535089
     0.750000000  0.000000000  0.450535089
     0.500000000  0.000000000  0.351605267
     0.750000000  0.750000000  0.351605267
     0.499630408  0.751353426  0.650399591
     0.750176024  0.999735778  0.650791269
     0.499796986  0.999712707  0.549547722
     0.750205742  0.749878658  0.549833611
     0.500000000  0.250000000  0.450535089
     0.750000000  0.500000000  0.450535089
     0.500000000  0.500000000  0.351605267
     0.750000000  0.250000000  0.351605267
     0.499715350  0.248309506  0.649697871
     0.751933680  0.500038256  0.650935875
     0.499375294  0.500055573  0.550792249
     0.750335547  0.249943409  0.549821171

  ion indices of the primitive-cell ions
   primitive index   ion index
                 1           1
                 2           2
                 3           3
                 4           4
                 5           5
                 6           6
                 7           7
                 8           8
                 9           9
                10          10
                11          11
                12          12
                13          13
                14          14
                15          15
                16          16
                17          17
                18          18
                19          19
                20          20
                21          21
                22          22
                23          23
                24          24
                25          25
                26          26
                27          27
                28          28
                29          29
                30          30
                31          31
                32          32
                33          33
                34          34
                35          35
                36          36
                37          37
                38          38
                39          39
                40          40
                41          41
                42          42
                43          43
                44          44
                45          45
                46          46
                47          47
                48          48
                49          49
                50          50
                51          51
                52          52
                53          53
                54          54
                55          55
                56          56
                57          57
                58          58
                59          59
                60          60
                61          61
                62          62
                63          63
                64          64

----------------------------------------------------------------------------------------



 KPOINTS: pymatgen v2020.8.13 with grid density = 

Automatic generation of k-mesh.
 Grid dimensions read from file:
 generate k-points for:    2    2    1

 Generating k-lattice:

  Cartesian coordinates                     Fractional coordinates (reciprocal lattice)
     0.059234796  0.000000000  0.000000000     0.500000000  0.000000000  0.000000000
     0.000000000  0.059234796  0.000000000     0.000000000  0.500000000  0.000000000
     0.000000000  0.000000000  0.046880702     0.000000000  0.000000000  1.000000000

  Length of vectors
     0.059234796  0.059234796  0.046880702

  Shift w.r.t. Gamma in fractional coordinates (k-lattice)
     0.000000000  0.000000000  0.000000000

 
 Subroutine IBZKPT returns following result:
 ===========================================
 
 Found      4 irreducible k-points:
 
 Following reciprocal coordinates:
            Coordinates               Weight
  0.000000  0.000000  0.000000      1.000000
  0.500000  0.000000  0.000000      1.000000
  0.000000  0.500000  0.000000      1.000000
  0.500000  0.500000  0.000000      1.000000
 
 Following cartesian coordinates:
            Coordinates               Weight
  0.000000  0.000000  0.000000      1.000000
  0.059235  0.000000  0.000000      1.000000
  0.000000  0.059235  0.000000      1.000000
  0.059235  0.059235  0.000000      1.000000
 


--------------------------------------------------------------------------------------------------------




 Dimension of arrays:
   k-points           NKPTS =      4   k-points in BZ     NKDIM =      4   number of bands    NBANDS=    320
   number of dos      NEDOS =    301   number of ions     NIONS =     64
   non local maximal  LDIM  =      5   non local SUM 2l+1 LMDIM =     13
   total plane-waves  NPLWV = 882000
   max r-space proj   IRMAX =      1   max aug-charges    IRDMAX=  11635
   dimension x,y,z NGX =    70 NGY =   70 NGZ =  180
   dimension x,y,z NGXF=   140 NGYF=  140 NGZF=  360
   support grid    NGXF=   140 NGYF=  140 NGZF=  360
   ions per type =              32  32
   NGX,Y,Z   is equivalent  to a cutoff of  13.79, 13.79, 14.03 a.u.
   NGXF,Y,Z  is equivalent  to a cutoff of  27.57, 27.57, 28.06 a.u.

 SYSTEM =  MgO-rocksalt                            
 POSCAR =  Mg  O                                   

--------------------------------------------------------------------------------------------------------


  energy-cutoff  :      600.00
  volume of cell :     1519.82
      direct lattice vectors                 reciprocal lattice vectors
     8.440984654  0.000000000  0.000000000     0.118469591  0.000000000  0.000000000
     0.000000000  8.440984654  0.000000000     0.000000000  0.118469591  0.000000000
     0.000000000  0.000000000 21.330738491     0.000000000  0.000000000  0.046880702

  length of vectors
     8.440984654  8.440984654 21.330738491     0.118469591  0.118469591  0.046880702



 k-points in units of 2pi/SCALE and weight: pymatgen v2020.8.13 with grid density = 
   0.00000000  0.00000000  0.00000000       0.250
   0.05923480  0.00000000  0.00000000       0.250
   0.00000000  0.05923480  0.00000000       0.250
   0.05923480  0.05923480  0.00000000       0.250

 k-points in reciprocal lattice and weights: pymatgen v2020.8.13 with grid density = 
   0.00000000  0.00000000  0.00000000       0.250
   0.50000000  0.00000000  0.00000000       0.250
   0.00000000  0.50000000  0.00000000       0.250
   0.50000000  0.50000000  0.00000000       0.250

 position of ions in fractional coordinates (direct lattice) 
   0.00000000  0.75000000  0.35160527
   0.25000000  0.00000000  0.35160527
   0.00000000  0.00000000  0.45053509
   0.25000000  0.75000000  0.45053509
   0.99956391  0.74976468  0.54998631
   0.25012796  0.00011673  0.54979893
   0.99936242  0.99998428  0.64865357
   0.24937407  0.75265942  0.64773390
   0.00000000  0.25000000  0.35160527
   0.25000000  0.50000000  0.35160527
   0.00000000  0.50000000  0.45053509
   0.25000000  0.25000000  0.45053509
   0.99971042  0.25005107  0.55009933
   0.25102368  0.49972365  0.55040644
   0.99737022  0.49971450  0.64863242
   0.25001786  0.24708879  0.64849931
   0.50000000  0.75000000  0.35160527
   0.75000000  0.00000000  0.35160527
   0.50000000  0.00000000  0.45053509
   0.75000000  0.75000000  0.45053509
   0.50021336  0.74883387  0.55050528
   0.74970793  0.99999926  0.54990948
   0.50035501  0.00023925  0.64832402
   0.75005499  0.75077169  0.64858459
   0.50000000  0.25000000  0.35160527
   0.75000000  0.50000000  0.35160527
   0.50000000  0.50000000  0.45053509
   0.75000000  0.25000000  0.45053509
   0.50013686  0.25096024  0.55050165
   0.74903992  0.49981390  0.55037548
   0.50661154  0.49925935  0.65411446
   0.74971709  0.24897717  0.64882144
   0.00000000  0.75000000  0.45053509
   0.25000000  0.00000000  0.45053509
   0.00000000  0.00000000  0.35160527
   0.25000000  0.75000000  0.35160527
   0.99993138  0.75049925  0.65094536
   0.24958958  0.99964284  0.65068745
   0.00009746  0.99985492  0.54972254
   0.24961597  0.74933032  0.54996343
   0.00000000  0.25000000  0.45053509
   0.25000000  0.50000000  0.45053509
   0.00000000  0.50000000  0.35160527
   0.25000000  0.25000000  0.35160527
   0.99990477  0.24919348  0.65095425
   0.24473558  0.50011400  0.65318337
   0.00044710  0.49996390  0.54998185
   0.24953130  0.25049122  0.55006092
   0.50000000  0.75000000  0.45053509
   0.75000000  0.00000000  0.45053509
   0.50000000  0.00000000  0.35160527
   0.75000000  0.75000000  0.35160527
   0.49963041  0.75135343  0.65039959
   0.75017602  0.99973578  0.65079127
   0.49979699  0.99971271  0.54954772
   0.75020574  0.74987866  0.54983361
   0.50000000  0.25000000  0.45053509
   0.75000000  0.50000000  0.45053509
   0.50000000  0.50000000  0.35160527
   0.75000000  0.25000000  0.35160527
   0.49971535  0.24830951  0.64969787
   0.75193368  0.50003826  0.65093588
   0.49937529  0.50005557  0.55079225
   0.75033555  0.24994341  0.54982117

 position of ions in cartesian coordinates  (Angst):
   0.00000000  6.33073849  7.50000000
   2.11024616  0.00000000  7.50000000
   0.00000000  0.00000000  9.61024616
   2.11024616  6.33073849  9.61024616
   8.43730361  6.32875219 11.73161405
   2.11132624  0.00098531 11.72761714
   8.43560282  8.44085198 13.83625960
   2.10496268  6.35318663 13.81664252
   0.00000000  2.11024616  7.50000000
   2.11024616  4.22049233  7.50000000
   0.00000000  4.22049233  9.61024616
   2.11024616  2.11024616  9.61024616
   8.43854032  2.11067723 11.73402494
   2.11888700  4.21815964 11.74057582
   8.41878674  4.21808241 13.83580847
   2.11039690  2.08567266 13.83296923
   4.22049233  6.33073849  7.50000000
   6.33073849  0.00000000  7.50000000
   4.22049233  0.00000000  9.61024616
   6.33073849  6.33073849  9.61024616
   4.22229334  6.32089518 11.74268419
   6.32827316  8.44097838 11.72997539
   4.22348899  0.00201953 13.82923018
   6.33120267  6.33725231 13.83478837
   4.22049233  2.11024616  7.50000000
   6.33073849  4.22049233  7.50000000
   4.22049233  4.22049233  9.61024616
   6.33073849  2.11024616  9.61024616
   4.22164752  2.11835150 11.74260678
   6.32263447  4.21892142 11.73991548
   4.27630024  4.21424048 13.95274443
   6.32835042  2.10161250 13.83984039
   0.00000000  6.33073849  9.61024616
   2.11024616  0.00000000  9.61024616
   0.00000000  0.00000000  7.50000000
   2.11024616  6.33073849  7.50000000
   8.44040542  6.33495267 13.88514527
   2.10678182  8.43796984 13.87964385
   0.00082269  8.43976006 11.72598771
   2.10700461  6.32508577 11.73112607
   0.00000000  2.11024616  9.61024616
   2.11024616  4.22049233  9.61024616
   0.00000000  4.22049233  7.50000000
   2.11024616  2.11024616  7.50000000
   8.44018084  2.10343834 13.88533492
   2.06580928  4.22145460 13.93288363
   0.00377397  4.22018764 11.73151910
   2.10628990  2.11439252 11.73320563
   4.22049233  6.33073849  9.61024616
   6.33073849  0.00000000  9.61024616
   4.22049233  0.00000000  7.50000000
   6.33073849  6.33073849  7.50000000
   4.21737261  6.34216274 13.87350359
   6.33222431  8.43875436 13.88185837
   4.21877869  8.43855962 11.72225875
   6.33247516  6.32971424 11.72835697
   4.22049233  2.11024616  9.61024616
   6.33073849  4.22049233  9.61024616
   4.22049233  4.22049233  7.50000000
   6.33073849  2.11024616  7.50000000
   4.21808960  2.09597673 13.85853539
   6.34706066  4.22081524 13.88494293
   4.21521920  4.22096142 11.74880543
   6.33357083  2.10976848 11.72809162



--------------------------------------------------------------------------------------------------------

--------------------------------------- Iteration      FINAL  ---------------------------------------


--------------------OUTCAR has been truncated-------------------------


--------------------OUTCAR has been truncated-------------------------


--------------------OUTCAR has been truncated-------------------------


--------------------OUTCAR has been truncated-------------------------


--------------------OUTCAR has been truncated-------------------------


--------------------OUTCAR has been truncated-------------------------


--------------------OUTCAR has been truncated-------------------------


--------------------OUTCAR has been truncated-------------------------


--------------------OUTCAR has been truncated-------------------------


--------------------OUTCAR has been truncated-------------------------


  DFT-D2 method for vdW energy calculation
  -------------------------------------------------------------------

  Parameters of vdW forcefield:
         C6(Jnm^6/mol)     R0(A)
   -----------------------------
   Mg       0.630          1.243
   O        0.700          1.342

  vdW correction parametrized for the method pbe       

  IVDW =   1
  VDW_RADIUS =    50.000 A
  VDW_S6 =     0.750
  VDW_SR =     1.000
  VDW_D =    20.000
  LVDW_EWALD = F

  Number of pair interactions contributing to vdW energy:  723279
  Edisp (eV):   -3.61800
    FORVDW:  cpu time      0.1071: real time      0.1071

  FORCE on cell =-STRESS in cart. coord.  units (eV):
  Direction    XX          YY          ZZ          XY          YZ          ZX
  --------------------------------------------------------------------------------------
  Alpha Z   875.25928   875.25928   875.25928
  Ewald  160984.59861160980.43576************     0.25805    -0.10851    -2.34489
  Hartree171050.52008171048.36657************     0.16323    -0.07019    -0.98912
  E(xc)   -2456.49192 -2456.49720 -2461.79908     0.00024    -0.00088    -0.00135
  Local  ************************342300.58028    -0.42155     0.18913     3.17357
  n-local -2811.94259 -2812.01677 -2832.98560     0.00166    -0.01346    -0.01851
  augment  1047.89376  1047.88864  1038.47615     0.00102    -0.00327     0.01728
  Kinetic  7302.48940  7302.53474  7344.00392    -0.00118     0.09388     0.21984
  Fock        0.00000     0.00000     0.00000     0.00000     0.00000     0.00000
  vdW        -5.27927    -5.28072    -4.28490    -0.00023    -0.00041     0.00194
  -------------------------------------------------------------------------------------
  Total     -24.46759   -24.61025    -0.33483     0.00123     0.08630     0.05876
  in kB     -25.79346   -25.94385    -0.35297     0.00130     0.09097     0.06195
  external pressure =      -17.36 kB  Pullay stress =        0.00 kB


 VOLUME and BASIS-vectors are now :
 -----------------------------------------------------------------------------
  energy-cutoff  :      600.00
  volume of cell :     1519.82
      direct lattice vectors                 reciprocal lattice vectors
     8.440984654  0.000000000  0.000000000     0.118469591  0.000000000  0.000000000
     0.000000000  8.440984654  0.000000000     0.000000000  0.118469591  0.000000000
     0.000000000  0.000000000 21.330738491     0.000000000  0.000000000  0.046880702

  length of vectors
     8.440984654  8.440984654 21.330738491     0.118469591  0.118469591  0.046880702


 FORCES acting on ions:
    Electron-Ion                     Ewald-Force                    Non-Local-Force
 -----------------------------------------------------------------------------------------------
   -.118E+00 0.325E+00 0.207E+04   0.119E+00 -.329E+00 -.206E+04   -.493E-03 0.334E-02 -.704E+01
   -.193E+00 -.151E-01 0.207E+04   0.194E+00 0.153E-01 -.206E+04   -.784E-03 -.186E-03 -.702E+01
   -.314E+00 -.145E+00 0.685E+03   0.305E+00 0.150E+00 -.685E+03   0.632E-02 -.406E-02 0.464E+00
   -.121E+01 0.159E+01 0.682E+03   0.123E+01 -.168E+01 -.682E+03   -.152E-01 0.608E-01 0.545E+00
   -.189E+01 0.208E+01 -.687E+03   0.192E+01 -.217E+01 0.687E+03   0.839E-02 0.714E-01 -.234E+00
   -.691E+00 0.341E-01 -.683E+03   0.659E+00 0.331E-02 0.683E+03   0.810E-02 -.437E-01 -.587E-01
   -.134E+01 0.111E+00 -.205E+04   0.122E+01 -.123E+00 0.204E+04   0.138E+00 -.360E-02 0.598E+01
   -.547E+01 0.131E+02 -.204E+04   0.507E+01 -.133E+02 0.203E+04   0.360E+00 -.123E+00 0.584E+01
   -.121E+00 -.325E+00 0.207E+04   0.122E+00 0.329E+00 -.206E+04   -.101E-02 -.300E-02 -.705E+01
   -.255E+00 0.147E-01 0.207E+04   0.261E+00 -.153E-01 -.206E+04   -.460E-02 0.480E-03 -.707E+01
   -.551E+00 0.131E+00 0.682E+03   0.590E+00 -.144E+00 -.682E+03   -.282E-01 0.881E-02 0.489E+00
   -.112E+01 -.161E+01 0.682E+03   0.112E+01 0.169E+01 -.682E+03   0.110E-02 -.567E-01 0.573E+00
   -.194E+01 -.208E+01 -.688E+03   0.201E+01 0.216E+01 0.688E+03   -.252E-01 -.724E-01 -.257E+00
   -.485E+01 -.482E-01 -.704E+03   0.504E+01 0.156E-01 0.704E+03   -.223E+00 0.397E-01 -.108E+00
   -.696E+01 -.591E-01 -.204E+04   0.804E+01 0.830E-01 0.204E+04   -.699E+00 -.606E-02 0.566E+01
   -.327E+01 -.130E+02 -.205E+04   0.278E+01 0.132E+02 0.204E+04   0.361E+00 0.122E+00 0.601E+01
   0.117E+00 0.387E+00 0.207E+04   -.119E+00 -.397E+00 -.206E+04   0.888E-03 0.718E-02 -.706E+01
   0.192E+00 -.126E-01 0.207E+04   -.193E+00 0.123E-01 -.206E+04   0.101E-02 0.274E-03 -.703E+01
   0.323E+00 -.661E-01 0.684E+03   -.319E+00 0.466E-01 -.684E+03   -.319E-02 0.142E-01 0.412E+00
   0.119E+01 0.143E+01 0.683E+03   -.123E+01 -.146E+01 -.684E+03   0.209E-01 0.214E-01 0.552E+00
   0.238E+01 0.487E+01 -.692E+03   -.242E+01 -.526E+01 0.693E+03   0.276E-02 0.364E+00 -.486E+00
   0.499E+00 0.697E-01 -.685E+03   -.477E+00 -.636E-01 0.685E+03   0.367E-02 -.117E-01 -.580E-01
   0.141E+01 0.156E+01 -.205E+04   -.131E+01 -.170E+01 0.204E+04   -.121E+00 0.621E-01 0.606E+01
   0.232E+01 0.147E+01 -.205E+04   -.189E+01 -.803E+00 0.204E+04   -.344E+00 -.576E+00 0.614E+01
   0.120E+00 -.388E+00 0.207E+04   -.122E+00 0.397E+00 -.206E+04   0.128E-02 -.676E-02 -.705E+01
   0.256E+00 0.119E-01 0.207E+04   -.262E+00 -.119E-01 -.206E+04   0.471E-02 0.404E-04 -.704E+01
   0.517E+00 0.349E-01 0.678E+03   -.558E+00 -.244E-01 -.679E+03   0.303E-01 -.818E-02 0.708E+00
   0.110E+01 -.144E+01 0.683E+03   -.111E+01 0.147E+01 -.684E+03   0.274E-02 -.171E-01 0.548E+00
   0.239E+01 -.480E+01 -.689E+03   -.246E+01 0.520E+01 0.690E+03   0.337E-01 -.370E+00 -.599E+00
   0.319E+01 -.106E+00 -.690E+03   -.338E+01 0.102E+00 0.690E+03   0.208E+00 0.109E-01 -.123E-01
   0.259E+02 -.182E+01 -.209E+04   -.256E+02 0.196E+01 0.208E+04   -.987E+00 -.549E-01 0.692E+01
   0.750E+00 -.144E+01 -.205E+04   -.201E+00 0.748E+00 0.204E+04   -.391E+00 0.589E+00 0.624E+01
   -.496E+00 0.945E+00 0.513E+03   0.518E+00 -.948E+00 -.512E+03   -.279E-01 0.479E-02 -.863E-01
   -.465E+00 -.258E-01 0.513E+03   0.473E+00 0.201E-01 -.513E+03   -.112E-01 0.716E-02 -.174E-02
   -.738E-01 -.159E-01 0.155E+04   0.734E-01 0.170E-01 -.156E+04   0.565E-03 -.164E-02 0.349E+01
   -.178E+00 0.275E+00 0.155E+04   0.182E+00 -.286E+00 -.156E+04   -.597E-02 0.144E-01 0.349E+01
   -.187E+01 0.215E+01 -.156E+04   0.224E+01 -.254E+01 0.156E+04   -.503E+00 0.463E+00 -.524E+01
   -.106E+01 -.137E-01 -.156E+04   0.972E+00 -.612E-01 0.156E+04   0.146E+00 0.120E+00 -.507E+01
   -.330E+00 -.161E+00 -.510E+03   0.351E+00 0.152E+00 0.509E+03   -.405E-01 0.157E-01 0.192E+00
   -.216E+01 0.388E+01 -.510E+03   0.214E+01 -.398E+01 0.510E+03   0.452E-01 0.182E+00 0.494E+00
   -.499E+00 -.962E+00 0.512E+03   0.512E+00 0.975E+00 -.512E+03   -.160E-01 -.171E-01 -.114E+00
   -.817E+00 0.169E-01 0.510E+03   0.767E+00 -.343E-02 -.509E+03   0.653E-01 -.175E-01 -.191E+00
   -.936E-01 0.163E-01 0.155E+04   0.989E-01 -.172E-01 -.156E+04   -.747E-02 0.122E-02 0.348E+01
   -.169E+00 -.275E+00 0.155E+04   0.171E+00 0.286E+00 -.156E+04   -.228E-02 -.147E-01 0.349E+01
   -.218E+01 -.215E+01 -.156E+04   0.256E+01 0.253E+01 0.156E+04   -.508E+00 -.444E+00 -.510E+01
   -.160E+02 -.494E-01 -.157E+04   0.164E+02 0.141E+00 0.157E+04   0.131E+00 -.137E+00 -.512E+01
   -.252E+01 0.173E+00 -.511E+03   0.276E+01 -.167E+00 0.511E+03   -.345E+00 -.115E-01 0.270E+00
   -.169E+01 -.387E+01 -.513E+03   0.166E+01 0.397E+01 0.512E+03   0.724E-01 -.179E+00 0.312E+00
   0.476E+00 0.129E+01 0.510E+03   -.487E+00 -.124E+01 -.510E+03   0.128E-01 -.726E-01 -.180E+00
   0.437E+00 -.209E-01 0.513E+03   -.438E+00 0.225E-01 -.513E+03   0.265E-02 -.246E-02 -.315E-01
   0.744E-01 -.701E-02 0.155E+04   -.738E-01 0.567E-02 -.156E+04   -.811E-03 0.189E-02 0.349E+01
   0.179E+00 0.257E+00 0.155E+04   -.183E+00 -.261E+00 -.156E+04   0.542E-02 0.605E-02 0.349E+01
   0.450E+01 0.680E+01 -.155E+04   -.498E+01 -.690E+01 0.156E+04   0.612E+00 -.578E-01 -.433E+01
   0.991E+00 0.667E-01 -.156E+04   -.897E+00 -.128E+00 0.156E+04   -.164E+00 0.947E-01 -.495E+01
   0.467E+00 0.212E+00 -.506E+03   -.493E+00 -.233E+00 0.506E+03   0.422E-01 0.397E-01 0.467E+00
   0.183E+01 0.165E+01 -.510E+03   -.182E+01 -.161E+01 0.509E+03   -.331E-01 -.475E-01 0.418E+00
   0.490E+00 -.130E+01 0.510E+03   -.496E+00 0.126E+01 -.510E+03   0.608E-02 0.573E-01 -.155E+00
   0.835E+00 0.182E-02 0.511E+03   -.784E+00 0.526E-02 -.510E+03   -.678E-01 -.898E-02 -.106E+00
   0.931E-01 0.730E-02 0.155E+04   -.983E-01 -.557E-02 -.156E+04   0.735E-02 -.246E-02 0.348E+01
   0.170E+00 -.256E+00 0.155E+04   -.171E+00 0.261E+00 -.156E+04   0.193E-02 -.642E-02 0.349E+01
   0.427E+01 -.657E+01 -.155E+04   -.470E+01 0.663E+01 0.155E+04   0.556E+00 0.999E-01 -.393E+01
   0.621E+00 -.121E+00 -.155E+04   0.737E-01 0.197E+00 0.156E+04   -.917E+00 -.113E+00 -.412E+01
   0.377E+01 -.247E+00 -.533E+03   -.397E+01 0.262E+00 0.534E+03   0.317E+00 -.315E-01 -.885E+00
   0.139E+01 -.161E+01 -.510E+03   -.136E+01 0.157E+01 0.509E+03   -.640E-01 0.549E-01 0.391E+00
 -----------------------------------------------------------------------------------------------
   0.234E+01 -.171E-01 0.142E+02   0.924E-13 0.412E-12 -.273E-11   -.234E+01 0.154E-01 -.142E+02


 POSITION                                       TOTAL-FORCE (eV/Angst)
 -----------------------------------------------------------------------------------
      0.00000      6.33074      7.50000         0.000363     -0.001270      0.349521
      2.11025      0.00000      7.50000         0.000392      0.000049      0.345605
      0.00000      0.00000      9.61025        -0.002507      0.001468      0.030032
      2.11025      6.33074      9.61025         0.006931     -0.022977      0.051272
      8.43730      6.32875     11.73161         0.040565     -0.015100      0.066643
      2.11133      0.00099     11.72762        -0.022810     -0.005857      0.022730
      8.43560      8.44085     13.83626         0.016739     -0.014921     -0.021888
      2.10496      6.35319     13.81664        -0.046622     -0.342846      0.179196
      0.00000      2.11025      7.50000         0.000505      0.001237      0.350914
      2.11025      4.22049      7.50000         0.001401     -0.000067      0.354867
      0.00000      4.22049      9.61025         0.011103     -0.003827      0.069230
      2.11025      2.11025      9.61025         0.001126      0.021151      0.049963
      8.43854      2.11068     11.73402         0.039751      0.015527      0.054875
      2.11889      4.21816     11.74058        -0.026389      0.006664      0.239083
      8.41879      4.21808     13.83581         0.371730      0.017365      0.083312
      2.11040      2.08567     13.83297        -0.127236      0.337730      0.033985
      4.22049      6.33074      7.50000        -0.000383     -0.002290      0.352581
      6.33074      0.00000      7.50000        -0.000346     -0.000070      0.347586
      4.22049      0.00000      9.61025         0.000965     -0.005190      0.037588
      6.33074      6.33074      9.61025        -0.010174     -0.009313      0.027032
      4.22229      6.32090     11.74268        -0.039847     -0.025551     -0.010101
      6.32827      8.44098     11.72998         0.025029     -0.005249      0.022313
      4.22349      0.00202     13.82923        -0.017750     -0.075356     -0.018095
      6.33120      6.33725     13.83479         0.092444      0.093185     -0.053839
      4.22049      2.11025      7.50000        -0.000478      0.002224      0.350365
      6.33074      4.22049      7.50000        -0.001335      0.000049      0.348456
      4.22049      4.22049      9.61025        -0.010867      0.002345      0.069843
      6.33074      2.11025      9.61025        -0.003227      0.007191      0.026712
      4.22165      2.11835     11.74261        -0.039898      0.027358     -0.058176
      6.32263      4.21892     11.73992         0.014403      0.006989     -0.060949
      4.27630      4.21424     13.95274        -0.669492      0.087323     -0.718282
      6.32835      2.10161     13.83984         0.154834     -0.098582     -0.115242
      0.00000      6.33074      9.61025        -0.005554      0.001208      0.054457
      2.11025      0.00000      9.61025        -0.003874      0.001472      0.060669
      0.00000      0.00000      7.50000         0.000206     -0.000454     -0.515077
      2.11025      6.33074      7.50000        -0.001662      0.004144     -0.517033
      8.44041      6.33495     13.88515        -0.139666      0.067629     -0.031903
      2.10678      8.43797     13.87964         0.061694      0.045183      0.016627
      0.00082      8.43976     11.72599        -0.018711      0.006202      0.009893
      2.10700      6.32509     11.73113         0.028345      0.076059     -0.051839
      0.00000      2.11025      9.61025        -0.002684     -0.004156      0.057948
      2.11025      4.22049      9.61025         0.015293     -0.004054      0.067686
      0.00000      4.22049      7.50000        -0.002117      0.000368     -0.517545
      2.11025      2.11025      7.50000        -0.000593     -0.004199     -0.517049
      8.44018      2.10344     13.88533        -0.129650     -0.061994      0.000112
      2.06581      4.22145     13.93288         0.497853     -0.044961     -0.122497
      0.00377      4.22019     11.73152        -0.108295     -0.005483     -0.023991
      2.10629      2.11439     11.73321         0.039974     -0.075513     -0.037192
      4.22049      6.33074      9.61025         0.002144     -0.018186      0.080959
      6.33074      0.00000      9.61025         0.002045     -0.000855      0.061982
      4.22049      0.00000      7.50000        -0.000191      0.000564     -0.515907
      6.33074      6.33074      7.50000         0.001584      0.001732     -0.516158
      4.21737      6.34216     13.87350         0.132489     -0.152280      0.222208
      6.33222      8.43875     13.88186        -0.070340      0.033191      0.037771
      4.21878      8.43856     11.72226         0.015544      0.018708      0.069954
      6.33248      6.32971     11.72836        -0.028693     -0.012814      0.037240
      4.22049      2.11025      9.61025         0.000453      0.014325      0.088798
      6.33074      4.22049      9.61025        -0.016591     -0.001864      0.090516
      4.22049      4.22049      7.50000         0.002169     -0.000694     -0.520013
      6.33074      2.11025      7.50000         0.000577     -0.001796     -0.516004
      4.21809      2.09598     13.85854         0.125926      0.159220      0.356302
      6.34706      4.22082     13.88494        -0.222943     -0.037595      0.216543
      4.21522      4.22096     11.74881         0.106927     -0.016384      0.011210
      6.33357      2.10977     11.72809        -0.040577      0.013889      0.054200
 -----------------------------------------------------------------------------------
    total drift:                               -0.002955     -0.001646      0.004185


--------------------------------------------------------------------------------------------------------



  FREE ENERGIE OF THE ION-ELECTRON SYSTEM (eV)
  ---------------------------------------------------
  free  energy   TOTEN  =      -375.68704028 eV

  energy  without entropy=     -375.68704028  energy(sigma->0) =     -375.68704028



--------------------------------------------------------------------------------------------------------


    POTLOK:  cpu time      0.1620: real time      0.1620


--------------------------------------------------------------------------------------------------------


     LOOP+:  cpu time     65.0634: real time     65.2339
    4ORBIT:  cpu time      0.0000: real time      0.0000

 total amount of memory used by VASP MPI-rank0    60508. kBytes
=======================================================================

   base      :      30000. kBytes
   nonl-proj :      11878. kBytes
   fftplans  :       4923. kBytes
   grid      :       7379. kBytes
   one-center:         64. kBytes
   wavefun   :       6264. kBytes

  
  
 General timing and accounting informations for this job:
 ========================================================
  
                  Total CPU time used (sec):       97.458
                            User time (sec):       96.279
                          System time (sec):        1.180
                         Elapsed time (sec):      107.528
  
                   Maximum memory used (kb):      157240.
                   Average memory used (kb):          N/A
  
                          Minor page faults:        33161
                          Major page faults:            0
                 Voluntary context switches:        12367
