 **********************************************************************
                          MRCC program system
 **********************************************************************
 
                              Written by
     Mihaly Kallay, Peter R. Nagy, David Mester, Laszlo Gyevi-Nagy,
        Jozsef Csoka, P. Bernat Szabo, Zoltan Rolik, Gyula Samu,
     Jozsef Csontos, Bence Hegely, Adam Ganyecz, Istvan Ladjanszki,
       Lorant Szegedy, Bence Ladoczki, Klara Petrov, Mate Farkas,
                    Pal D. Mezei, and Reka A. Horvath
 
        Department of Physical Chemistry and Materials Science
            Budapest University of Technology and Economics
                  Budapest P.O.Box 91, H-1521 Hungary
 
                              www.mrcc.hu
 
                      Release date: March 18, 2022

 ************************ 2023-02-04 11:53:58 *************************
 Executing minp...

 Reading input from MINP...
 
 Input file:
 
calc=FNO-CCSD(T)
verbosity=3
mem=220GB
unit=angs
scfiguess=small
scfalg=locfit1
ccmaxit=400
ccsdalg=dfdirect
ccsdthreads=4
ccsdmkl=thr
ptthreads=4
lnoepsv=1e-5
naf_cor=1e-2
basis=aug-cc-pVQZ
basis_sm=def2-SVP
dfbasis_scf=def2-QZVPP-RI-JK
dfbasis_cor=aug-cc-pVQZ-RI
unit=angs
geom=xyz
10

C    29.54344629    29.54344629    16.97505516
H    29.54344670    30.44187631    17.60392580
H    29.54344662    28.64496649    17.60393442
H    30.44658454    29.54342777    16.34911135
H    28.64030918    29.54342779    16.34911130
C    21.10246164    37.98443094    16.97505516
H    21.10246204    38.88286097    17.60392580
H    21.10246196    37.08595114    17.60393442
H    22.00559989    37.98441242    16.34911135
H    20.19932453    37.98441244    16.34911130

--------------------Output has been truncated-------------------------


--------------------Output has been truncated-------------------------


--------------------Output has been truncated-------------------------


--------------------Output has been truncated-------------------------


--------------------Output has been truncated-------------------------


--------------------Output has been truncated-------------------------


--------------------Output has been truncated-------------------------


--------------------Output has been truncated-------------------------


--------------------Output has been truncated-------------------------


--------------------Output has been truncated-------------------------


 
 Reference energy [au]:                       -40.215614175333
 DF-MP2 singlet pair energy [au]:              -0.173752873018
 DF-MP2 triplet pair energy [au]:              -0.037498361100
 DF-SCS-MP2 correlation energy [au]:           -0.221002901321
 DF-SCS-MP2 energy [au]:                      -40.436617076655
 DF-SOS-MP2 correlation energy [au]:           -0.225878734923
 DF-SOS-MP2 energy [au]:                      -40.441492910256
 DF-MP2 correlation energy [au]:               -0.211251234118
 DF-MP2 energy [au]:                          -40.426865409451

 Results in FNO basis:
 
 
 Reference energy [au]:                       -40.215614175333
 DF-MP2 singlet pair energy [au]:              -0.170618202942
 DF-MP2 triplet pair energy [au]:              -0.037357058805
 DF-SCS-MP2 correlation energy [au]:           -0.217194196465
 DF-SCS-MP2 energy [au]:                      -40.432808371798
 DF-SOS-MP2 correlation energy [au]:           -0.221803663824
 DF-SOS-MP2 energy [au]:                      -40.437417839157
 DF-MP2 correlation energy [au]:               -0.207975261746
 DF-MP2 energy [au]:                          -40.423589437080

 Results in NAF basis:
 
 
 Reference energy [au]:                       -40.215614175333
 DF-MP2 singlet pair energy [au]:              -0.170600641595
 DF-MP2 triplet pair energy [au]:              -0.037363750607
 DF-SCS-MP2 correlation energy [au]:           -0.217175353450
 DF-SCS-MP2 energy [au]:                      -40.432789528783
 DF-SOS-MP2 correlation energy [au]:           -0.221780834074
 DF-SOS-MP2 energy [au]:                      -40.437395009407
 DF-MP2 correlation energy [au]:               -0.207964392202
 DF-MP2 energy [au]:                          -40.423578567535

 ************************ 2023-02-04 11:54:33 *************************
 Executing ccsd...

 Allocation of 220.0 Gbytes of memory...

 Direct DF-CCSD(T) calculation
 
 Convergence criterion:  1.0E-06
 
 Number of occupied/virtual/auxiliary orbitals:     4   101   320
    163.36 MB is the minimal memory requirement for (T)
     39.40 MB is the minimal memory requirement for CCSD
 
 Reference energy [au]:             -40.215614175333
 T1 contribution [au]:                0.000000000000
 Same spin MP2 energy [au]:          -0.037360400257
 Opposite spin MP2 energy [au]:      -0.170609412475
 MP2 correlation energy [au]:        -0.207969812732
 Total MP2 energy [au]:             -40.423583988065
 MP2 correction [au]:                -0.003281421386
 
 
 CPU time [min]:     0.177                   Wall time [min]:     0.008
 
 Starting CCSD iterations...
 
                     Residual norm          Energy
 Iteration  1        0.138680867704      -40.436528971045
 Iteration  2        0.035376071340      -40.442052523164
 Iteration  3        0.009771739032      -40.442635243766
 Iteration  4        0.002020926471      -40.442639742876
 Iteration  5        0.000374897489      -40.442646253711
 Iteration  6        0.000084797657      -40.442646130466
 Iteration  7        0.000020223466      -40.442646820494
 Iteration  8        0.000003738676      -40.442646877443
 
 CCSD iteration has converged in  8 steps.
      444.29 MB memory was utilized by CCSD
 
 T1 diagnostic:      7.996E-03            D1 diagnostic:      1.292E-02
 
 T1 contribution [au]:                                  0.000000000000
 PPL energy contribution [au]:                          0.060602205654
 Scaled PPL energy contribution [au]:                   0.061558994216

 OS-PPL energy contribution [au]:                       0.053773710290
 Scaled OS-PPL energy contribution [au]:                0.054766761465
 SS-PPL energy contribution [au]:                       0.006828495364
 Scaled SS-PPL energy contribution [au]:                0.006852794309

 Opposite spin CCSD energy [au]:                       -0.191003418897
 Same spin CCSD energy [au]:                           -0.036036034606
 CCSD correlation energy [au]:                         -0.227039453503
 CCSD correlation energy + MP2 correction [au]:        -0.230320874889
 CCSD correlation energy + MP2 + PPL corr. [au]:       -0.229364086327
 Total CCSD energy [au]:                              -40.442653628836
 Total CCSD energy + MP2 correction [au]:             -40.445935050222
 Total CCSD energy + MP2 + PPL corr. [au]:            -40.444978261660
 
 CPU time [min]:     0.925                   Wall time [min]:     0.029
 
 Calculation of (T) correction...
 
 
      124.68 MB memory is utilized for (T)

 0%       25%       50%       75%       100%
 |---------|---------|---------|---------| 
 
 (T) correction [au]:                                    -0.006941734280
 (T*) correction [au]:                                   -0.007051263423
 (T+) correction [au]:                                   -0.007050856445
 CCSD(T) correlation energy [au]:                        -0.233981187783
 CCSD(T) correlation energy + MP2 correction [au]:       -0.237262609168
 CCSD(T+) correlation en. + MP2 + PPL corr. [au]:        -0.236414942771
 Total CCSD(T) energy [au]:                             -40.449595363116
 Total CCSD(T) energy + MP2 correction [au]:            -40.452876784502
 Total CCSD(T+) energy + MP2 + PPL corr. [au]:          -40.452029118105
 
 CPU time [min]:     1.017                   Wall time [min]:     0.032
 
 ************************ 2023-02-04 11:54:35 *************************
                      Normal termination of mrcc.
 **********************************************************************
