 vasp.6.3.0 20Jan22 (build Dec 25 2023 18:06:01) complex                         
 executed on        HPECrayEX_GCC date 2024.02.08  00:38:09
 running 1024 mpi-ranks, with    1 threads/rank
 distrk:  each k-point on 1024 cores,    1 groups
 distr:  one band on NCORE=   4 cores,  256 groups


--------------------------------------------------------------------------------------------------------


 INCAR:
   SYSTEM = TiO2
   ISMEAR = 0
   SIGMA = 0.05
   EDIFF = 1E-4
   ALGO = ALL
   ICHARG = 1
   IBRION = -1
   NSW = 0
   ISYM = 0
   ISIF = 2
   EDIFFG = -0.01
   DIPOL = 0.5 0.5 0.5
   IDIPOL = 3
   LDIPOL = .TRUE.
   LHFCALC = .TRUE.
   HFSCREEN = 0.2
   GGA = PE
   IVDW = 13
   VDW_S8 = 1.19528249
   VDW_A1 = 0.38663183
   VDW_A2 = 5.19133469
   ENCUT = 520
   PREC = Normal
   PRECFOCK = Fast
   LASPH = .TRUE.
   LREAL = .FALSE.
   ISPIN = 1
   NELM = 200
   NELMIN = 8
   NCORE = 4
   KPAR = 1
   NKREDX = 2
   NKREDY = 2
   LWAVE = .FALSE.
   LCHARG = .FALSE.

 POTCAR:    PAW_PBE Ti 08Apr2002                  
 POTCAR:    PAW_PBE O 08Apr2002                   
 POTCAR:    PAW_PBE Ti 08Apr2002                  
   SHA256 =  f8e8f1d080d9e9b45e792f1068744b07aba8441d1e7ce11486a5d4c0f5a1479e Ti/POTCAR             
   COPYR  = (c) Copyright 08Apr2002 Georg Kresse                                                    
   COPYR  = This file is part of the software VASP. Any use, copying, and all other rights are regul
   COPYR  = If you do not have a valid VASP license, you may not use, copy or distribute this file. 
   VRHFIN =Ti: d3 s1                                                                                
   LEXCH  = PE                                                                                      
   EATOM  =    94.7928 eV,    6.9671 Ry                                                             
                                                                                                    
   TITEL  = PAW_PBE Ti 08Apr2002                                                                    
   LULTRA =        F    use ultrasoft PP ?                                                          
   IUNSCR =        1    unscreen: 0-lin 1-nonlin 2-no                                               
   RPACOR =    2.200    partial core radius                                                         
   POMASS =   47.880; ZVAL   =    4.000    mass and valenz                                          
   RCORE  =    2.800    outmost cutoff radius                                                       
   RWIGS  =    2.500; RWIGS  =    1.323    wigner-seitz radius (au A)                               
   ENMAX  =  178.330; ENMIN  =  133.747 eV                                                          
   RCLOC  =    2.215    cutoff for local pot                                                        
   LCOR   =        T    correct aug charges                                                         
   LPAW   =        T    paw PP                                                                      
   EAUG   =  328.883                                                                                
   DEXC   =    0.000                                                                                
   RMAX   =    2.868    core radius for proj-oper                                                   
   RAUG   =    1.300    factor for augmentation sphere                                              
   RDEP   =    2.885    radius for radial grids                                                     
   RDEPT  =    2.320    core radius for aug-charge                                                  
                                                                                                    
   Atomic configuration                                                                             
    9 entries                                                                                       
     n  l   j            E        occ.                                                              
     1  0  0.50     -4865.3608   2.0000                                                             
     2  0  0.50      -533.1367   2.0000                                                             
     2  1  1.50      -440.5031   6.0000                                                             
     3  0  0.50       -59.3186   2.0000                                                             
     3  1  1.50       -35.7012   6.0000                                                             
     3  2  2.50        -1.9157   3.0000                                                             
     4  0  0.50        -3.7291   1.0000                                                             
     4  1  1.50        -4.0817   0.0000                                                             
     4  3  2.50        -1.3606   0.0000                                                             
   Description                                                                                      
     l       E           TYP  RCUT    TYP  RCUT                                                     
     2     -1.9156924     23  2.800                                                                 
     2     -0.4062961     23  2.800                                                                 
     0     -3.7290832     23  2.800                                                                 
     0     20.4087390     23  2.800                                                                 
     1     -5.4423304     23  2.800                                                                 
  local pseudopotential read in
  partial core-charges read in
  partial kinetic energy density read in
  atomic valenz-charges read in
  non local Contribution for L=           2  read in
    real space projection operators read in
  non local Contribution for L=           2  read in
    real space projection operators read in
  non local Contribution for L=           0  read in
    real space projection operators read in
  non local Contribution for L=           0  read in
    real space projection operators read in
  non local Contribution for L=           1  read in
    real space projection operators read in
    PAW grid and wavefunctions read in

   number of l-projection  operators is LMAX  =           5
   number of lm-projection operators is LMMAX =          15

 POTCAR:    PAW_PBE O 08Apr2002                   
   SHA256 =  818f92134a0a090dccd8ba1447fa70422a3b330e708bb4f08108d8ae51209ddf O/POTCAR              
   COPYR  = (c) Copyright 08Apr2002 Georg Kresse                                                    
   COPYR  = This file is part of the software VASP. Any use, copying, and all other rights are regul
   COPYR  = If you do not have a valid VASP license, you may not use, copy or distribute this file. 
   VRHFIN =O: s2p4                                                                                  
   LEXCH  = PE                                                                                      
   EATOM  =   432.3788 eV,   31.7789 Ry                                                             
                                                                                                    
   TITEL  = PAW_PBE O 08Apr2002                                                                     
   LULTRA =        F    use ultrasoft PP ?                                                          
   IUNSCR =        1    unscreen: 0-lin 1-nonlin 2-no                                               
   RPACOR =    1.200    partial core radius                                                         
   POMASS =   16.000; ZVAL   =    6.000    mass and valenz                                          
   RCORE  =    1.520    outmost cutoff radius                                                       
   RWIGS  =    1.550; RWIGS  =    0.820    wigner-seitz radius (au A)                               
   ENMAX  =  400.000; ENMIN  =  300.000 eV                                                          
   ICORE  =        2    local potential                                                             
   LCOR   =        T    correct aug charges                                                         
   LPAW   =        T    paw PP                                                                      
   EAUG   =  605.392                                                                                
   DEXC   =    0.000                                                                                
   RMAX   =    1.553    core radius for proj-oper                                                   
   RAUG   =    1.300    factor for augmentation sphere                                              
   RDEP   =    1.550    radius for radial grids                                                     
   RDEPT  =    1.329    core radius for aug-charge                                                  
                                                                                                    
   Atomic configuration                                                                             
    4 entries                                                                                       
     n  l   j            E        occ.                                                              
     1  0  0.50      -514.6923   2.0000                                                             
     2  0  0.50       -23.9615   2.0000                                                             
     2  1  0.50        -9.0305   4.0000                                                             
     3  2  1.50        -9.5241   0.0000                                                             
   Description                                                                                      
     l       E           TYP  RCUT    TYP  RCUT                                                     
     0    -23.9615318     23  1.200                                                                 
     0     -9.5240782     23  1.200                                                                 
     1     -9.0304911     23  1.520                                                                 
     1      8.1634956     23  1.520                                                                 
     2     -9.5240782      7  1.500                                                                 
  local pseudopotential read in
  partial core-charges read in
  partial kinetic energy density read in
  kinetic energy density of atom read in
  atomic valenz-charges read in
  non local Contribution for L=           0  read in
    real space projection operators read in
  non local Contribution for L=           0  read in
    real space projection operators read in
  non local Contribution for L=           1  read in
    real space projection operators read in
  non local Contribution for L=           1  read in
    real space projection operators read in
    PAW grid and wavefunctions read in

   number of l-projection  operators is LMAX  =           4
   number of lm-projection operators is LMMAX =           8

 -----------------------------------------------------------------------------
|                                                                             |
|               ----> ADVICE to this user running VASP <----                  |
|                                                                             |
|     You have a (more or less) 'large supercell' and for larger cells it     |
|     might be more efficient to use real-space projection operators.         |
|     Therefore, try LREAL= Auto in the INCAR file.                           |
|     Mind: For very accurate calculation, you might also keep the            |
|     reciprocal projection scheme (i.e. LREAL=.FALSE.).                      |
|                                                                             |
 -----------------------------------------------------------------------------

  PAW_PBE Ti 08Apr2002                  :
 energy of atom  1       EATOM=  -94.7928
 kinetic energy error for atom=    0.0002 (will be added to EATOM!!)
  PAW_PBE O 08Apr2002                   :
 energy of atom  2       EATOM= -432.3788
 kinetic energy error for atom=    0.0208 (will be added to EATOM!!)


 POSCAR: Ti  O
  positions in direct lattice
  No initial velocities read in
 -----------------------------------------------------------------------------
|                                                                             |
|           W    W    AA    RRRRR   N    N  II  N    N   GGGG   !!!           |
|           W    W   A  A   R    R  NN   N  II  NN   N  G    G  !!!           |
|           W    W  A    A  R    R  N N  N  II  N N  N  G       !!!           |
|           W WW W  AAAAAA  RRRRR   N  N N  II  N  N N  G  GGG   !            |
|           WW  WW  A    A  R   R   N   NN  II  N   NN  G    G                |
|           W    W  A    A  R    R  N    N  II  N    N   GGGG   !!!           |
|                                                                             |
|     Specifying the vdW parameters                                           |
|     VDW_S8 = 1.195                                                          |
|     VDW_A1 = 0.387                                                          |
|     VDW_A2 = 5.191                                                          |
|     in the INCAR file will overwrite the defaults for hse06. Please         |
|     make sure that is what you intended.                                    |
|                                                                             |
 -----------------------------------------------------------------------------

 exchange correlation table for  LEXCH =        8
   RHO(1)=    0.500       N(1)  =     2000
   RHO(2)=  100.500       N(2)  =     4000



--------------------------------------------------------------------------------------------------------


 ion  position               nearest neighbor table
   1  0.750  0.625  0.287-  82 1.95 142 1.95 141 1.95  81 1.95  84 1.97 163 1.97  11 2.96  31 2.96

   2  0.000  0.750  0.287-  83 1.95  84 1.95 103 1.95 104 1.95  85 1.97  32 2.96  12 2.96
   3  0.000  0.625  0.394-  85 1.95  86 1.95 145 1.95 146 1.95  87 1.97  88 1.97  13 2.96  33 2.96

   4  0.750  0.750  0.394-  87 1.95 107 1.95 168 1.95 188 1.95  89 1.97  82 1.97  14 2.96  34 2.96

   5  0.750  0.625  0.500-  89 1.95  90 1.95 149 1.95 150 1.95  92 1.97 171 1.97  15 2.96  35 2.96

   6  0.000  0.750  0.500-  91 1.95  92 1.95 111 1.95 112 1.95  86 1.97  93 1.99  16 2.96  36 2.96

   7  1.000  0.625  0.604- 153 1.90  93 1.90  96 1.95  95 1.95  94 2.01 154 2.01  17 2.96  37 2.96

   8  0.750  0.750  0.610-  97 1.87 176 1.97 196 1.97  95 1.97 115 1.97  90 2.09  38 2.96  18 2.96

   9  0.749  0.625  0.720-  98 1.83 158 1.83 179 2.02 100 2.03 157 2.09  97 2.09  19 2.96  39 2.96

  10  1.000  0.750  0.708-  94 1.81 120 1.94 119 1.94 100 1.94  99 1.95  20 2.96  40 2.96
  11  0.750  0.875  0.287-  82 1.95 102 1.95 101 1.95  81 1.95 104 1.97 183 1.97   1 2.96  21 2.96

  12  0.000  0.000  0.287- 103 1.95 104 1.95 123 1.95 124 1.95 105 1.97  22 2.96   2 2.96
  13  0.000  0.875  0.394-  85 1.95  86 1.95 105 1.95 106 1.95 107 1.97 108 1.97   3 2.96  23 2.96

  14  0.750  0.000  0.394- 107 1.95 127 1.95 188 1.95 208 1.95 109 1.97 102 1.97   4 2.96  24 2.96

  15  0.750  0.875  0.500-  89 1.95  90 1.95 109 1.95 110 1.95 112 1.97 191 1.97   5 2.96  25 2.96

  16  0.000  0.000  0.500- 111 1.95 112 1.95 131 1.95 132 1.95 106 1.97 113 1.99   6 2.96  26 2.96

  17  1.000  0.875  0.604-  93 1.90 113 1.90 115 1.95 116 1.95 114 2.01  94 2.01  27 2.96   7 2.96

  18  0.750  1.000  0.610- 117 1.87 196 1.97 216 1.97 115 1.97 135 1.97 110 2.09   8 2.96  28 2.96

  19  0.750  0.875  0.720- 118 1.83  98 1.83 199 2.02 120 2.03 117 2.09  97 2.09  29 2.96   9 2.96

  20  0.000  1.000  0.708- 114 1.81 139 1.94 119 1.94 140 1.94 120 1.94  10 2.96  30 2.96
  21  0.750  0.125  0.287- 102 1.95 122 1.95 121 1.95 101 1.95 124 1.97 203 1.97  11 2.96  31 2.96

  22  0.000  0.250  0.287- 123 1.95 124 1.95 143 1.95 144 1.95 125 1.97  32 2.96  12 2.96
  23  0.000  0.125  0.394- 105 1.95 106 1.95 125 1.95 126 1.95 127 1.97 128 1.97  13 2.96  33 2.96

  24  0.750  0.250  0.394- 127 1.95 147 1.95 208 1.95 228 1.95 129 1.97 122 1.97  14 2.96  34 2.96

  25  0.750  0.125  0.500- 109 1.95 110 1.95 129 1.95 130 1.95 132 1.97 211 1.97  15 2.96  35 2.96

  26  0.000  0.250  0.500- 131 1.95 132 1.95 151 1.95 152 1.95 126 1.97 133 1.99  16 2.96  36 2.96

  27  1.000  0.125  0.604- 133 1.90 113 1.90 135 1.95 136 1.95 114 2.01 134 2.01  17 2.96  37 2.96

  28  0.750  0.250  0.610- 137 1.87 236 1.97 216 1.97 155 1.97 135 1.97 130 2.09  38 2.96  18 2.96

  29  0.750  0.125  0.720- 118 1.83 138 1.83 219 2.02 140 2.03 117 2.09 137 2.09  19 2.96  39 2.96

  30  1.000  0.250  0.708- 134 1.81 140 1.94 139 1.94 160 1.94 159 1.95  20 2.96  40 2.96
  31  0.750  0.375  0.287- 122 1.95 142 1.95 141 1.95 121 1.95 144 1.97 223 1.97   1 2.96  21 2.96

  32  0.000  0.500  0.287-  83 1.95  84 1.95 143 1.95 144 1.95 145 1.97  22 2.96   2 2.96
  33  0.000  0.375  0.394- 125 1.95 126 1.95 145 1.95 146 1.95 147 1.97 148 1.97   3 2.96  23 2.96

  34  0.750  0.500  0.394-  87 1.95 147 1.95 168 1.95 228 1.95 142 1.97 149 1.97   4 2.96  24 2.96

  35  0.750  0.375  0.500- 129 1.95 130 1.95 149 1.95 150 1.95 152 1.97 231 1.97   5 2.96  25 2.96

  36  0.000  0.500  0.500-  91 1.95  92 1.95 151 1.95 152 1.95 146 1.97 153 1.99   6 2.96  26 2.96

  37  1.000  0.375  0.604- 153 1.90 133 1.90 156 1.95 155 1.95 134 2.01 154 2.01  27 2.96   7 2.96

  38  0.750  0.500  0.610- 157 1.87 176 1.97 236 1.97  95 1.97 155 1.97 150 2.09   8 2.96  28 2.96

  39  0.749  0.375  0.720- 138 1.83 158 1.83 239 2.02 160 2.03 157 2.09 137 2.09  29 2.96   9 2.96

  40  0.999  0.500  0.708- 154 1.81 160 1.94 100 1.94 159 1.95  99 1.95  10 2.96  30 2.96
  41  0.250  0.625  0.287- 162 1.95 222 1.95 221 1.95 161 1.95  83 1.97 164 1.97  51 2.96  71 2.96

  42  0.500  0.750  0.287- 163 1.95 164 1.95 183 1.95 184 1.95 165 1.97  72 2.96  52 2.96
  43  0.500  0.625  0.394- 165 1.95 166 1.95 225 1.95 226 1.95 167 1.97 168 1.97  53 2.96  73 2.96

  44  0.250  0.750  0.394-  88 1.95 108 1.95 167 1.95 187 1.95 169 1.97 162 1.97  54 2.96  74 2.96

  45  0.250  0.625  0.500- 169 1.95 170 1.95 229 1.95 230 1.95  91 1.97 172 1.97  55 2.96  75 2.96

  46  0.500  0.750  0.500- 171 1.95 172 1.95 191 1.95 192 1.95 166 1.97 173 1.99  56 2.96  76 2.96

  47  0.500  0.624  0.605- 233 1.90 173 1.91 176 1.95 175 1.95 174 2.00 234 2.00  77 2.93  57 2.96

  48  0.250  0.750  0.610- 177 1.87 195 1.97 175 1.97  96 1.97 116 1.97 170 2.08  58 2.96  78 2.96

  49  0.249  0.625  0.719- 178 1.83 238 1.84  99 2.02 180 2.02 177 2.08 237 2.09  59 2.95  79 2.97

  50  0.500  0.750  0.707- 174 1.81 180 1.93 179 1.93 199 1.94 200 1.95  60 2.95  80 2.96
  51  0.250  0.875  0.287- 162 1.95 182 1.95 181 1.95 161 1.95 103 1.97 184 1.97  41 2.96  61 2.96

  52  0.500  0.000  0.287- 183 1.95 184 1.95 203 1.95 204 1.95 185 1.97  62 2.96  42 2.96
  53  0.500  0.875  0.394- 165 1.95 166 1.95 185 1.95 186 1.95 187 1.97 188 1.97  43 2.96  63 2.96

  54  0.250  0.000  0.394- 108 1.95 128 1.95 187 1.95 207 1.95 189 1.97 182 1.97  44 2.96  64 2.96

  55  0.250  0.875  0.500- 169 1.95 170 1.95 189 1.95 190 1.95 111 1.97 192 1.97  45 2.96  65 2.96

  56  0.500  0.000  0.500- 191 1.95 192 1.95 211 1.95 212 1.95 186 1.97 193 1.98  46 2.96  66 2.96

  57  0.500  0.875  0.604- 173 1.89 193 1.90 196 1.95 195 1.95 174 2.00 194 2.01  47 2.96  67 2.97

  58  0.250  1.000  0.610- 197 1.87 195 1.97 215 1.97 116 1.97 136 1.97 190 2.09  48 2.96  68 2.96

  59  0.250  0.875  0.720- 198 1.83 178 1.83 200 2.02 119 2.03 197 2.09 177 2.09  49 2.95  69 2.96

  60  0.500  1.000  0.708- 194 1.81 199 1.94 219 1.94 200 1.94 220 1.94  50 2.95  70 2.95
  61  0.250  0.125  0.287- 182 1.95 202 1.95 201 1.95 181 1.95 123 1.97 204 1.97  51 2.96  71 2.96

  62  0.500  0.250  0.287- 203 1.95 204 1.95 223 1.95 224 1.95 205 1.97  72 2.96  52 2.96
  63  0.500  0.125  0.394- 185 1.95 186 1.95 205 1.95 206 1.95 207 1.97 208 1.97  53 2.96  73 2.96

  64  0.250  0.250  0.394- 128 1.95 148 1.95 207 1.95 227 1.95 209 1.97 202 1.97  54 2.96  74 2.96

  65  0.250  0.125  0.500- 189 1.95 190 1.95 209 1.95 210 1.95 131 1.97 212 1.97  55 2.96  75 2.96

  66  0.500  0.250  0.500- 211 1.95 212 1.95 231 1.95 232 1.95 206 1.97 213 1.99  56 2.96  76 2.96

  67  0.500  0.125  0.604- 213 1.89 193 1.90 216 1.95 215 1.95 214 2.00 194 2.01  77 2.96  57 2.97

  68  0.250  0.250  0.610- 217 1.87 215 1.97 235 1.97 156 1.97 136 1.97 210 2.08  58 2.96  78 2.96

  69  0.250  0.125  0.720- 198 1.83 218 1.83 220 2.02 139 2.03 197 2.09 217 2.09  79 2.95  59 2.96

  70  0.500  0.250  0.707- 214 1.81 240 1.93 239 1.93 219 1.94 220 1.95  60 2.95  80 2.96
  71  0.250  0.375  0.287- 202 1.95 222 1.95 221 1.95 201 1.95 143 1.97 224 1.97  41 2.96  61 2.96

  72  0.500  0.500  0.287- 163 1.95 164 1.95 223 1.95 224 1.95 225 1.97  62 2.96  42 2.96
  73  0.500  0.375  0.394- 205 1.95 206 1.95 225 1.95 226 1.95 227 1.97 228 1.97  43 2.96  63 2.96

  74  0.250  0.500  0.394-  88 1.95 148 1.95 167 1.95 227 1.95 222 1.97 229 1.97  44 2.96  64 2.96

  75  0.250  0.375  0.500- 209 1.95 210 1.95 229 1.95 230 1.95 151 1.97 232 1.97  45 2.96  65 2.96

  76  0.500  0.500  0.500- 171 1.95 172 1.95 231 1.95 232 1.95 226 1.97 233 2.00  46 2.96  66 2.96

  77  0.500  0.376  0.605- 233 1.90 213 1.91 236 1.95 235 1.95 214 2.00 234 2.00  47 2.93  67 2.96

  78  0.250  0.500  0.610- 237 1.87 175 1.97 235 1.97  96 1.97 156 1.97 230 2.08  48 2.96  68 2.96

  79  0.249  0.375  0.719- 218 1.83 238 1.84 159 2.02 240 2.02 217 2.08 237 2.09  69 2.95  49 2.97

  80  0.499  0.500  0.710- 234 1.85 240 1.95 180 1.95 179 1.95 239 1.95  50 2.96  70 2.96
  81  0.750  0.750  0.246-   1 1.95  11 1.95
  82  0.750  0.750  0.329-   1 1.95  11 1.95   4 1.97
  83  0.098  0.625  0.287-   2 1.95  32 1.95  41 1.97
  84  0.902  0.625  0.287-   2 1.95  32 1.95   1 1.97
  85  0.000  0.750  0.352-   3 1.95  13 1.95   2 1.97
  86  0.000  0.750  0.435-   3 1.95  13 1.95   6 1.97
  87  0.848  0.625  0.394-   4 1.95  34 1.95   3 1.97
  88  0.152  0.625  0.394-  44 1.95  74 1.95   3 1.97
  89  0.750  0.750  0.458-   5 1.95  15 1.95   4 1.97
  90  0.750  0.750  0.542-   5 1.95  15 1.95   8 2.09
  91  0.098  0.625  0.500-   6 1.95  36 1.95  45 1.97
  92  0.902  0.625  0.500-   6 1.95  36 1.95   5 1.97
  93  1.000  0.750  0.565-  17 1.90   7 1.90   6 1.99
  94  0.000  0.750  0.649-  10 1.81   7 2.01  17 2.01
  95  0.850  0.625  0.607-   7 1.95   8 1.97  38 1.97
  96  0.150  0.625  0.607-   7 1.95  48 1.97  78 1.97
  97  0.750  0.750  0.671-   8 1.87  19 2.09   9 2.09
  98  0.750  0.750  0.755-   9 1.83  19 1.83
  99  0.094  0.625  0.719-  40 1.95  10 1.95  49 2.02
 100  0.906  0.625  0.718-  40 1.94  10 1.94   9 2.03
 101  0.750  0.000  0.246-  11 1.95  21 1.95
 102  0.750  0.000  0.329-  11 1.95  21 1.95  14 1.97
 103  0.098  0.875  0.287-   2 1.95  12 1.95  51 1.97
 104  0.902  0.875  0.287-   2 1.95  12 1.95  11 1.97
 105  0.000  0.000  0.352-  13 1.95  23 1.95  12 1.97
 106  0.000  0.000  0.435-  13 1.95  23 1.95  16 1.97
 107  0.848  0.875  0.394-   4 1.95  14 1.95  13 1.97
 108  0.152  0.875  0.394-  44 1.95  54 1.95  13 1.97
 109  0.750  0.000  0.458-  15 1.95  25 1.95  14 1.97
 110  0.750  0.000  0.542-  15 1.95  25 1.95  18 2.09
 111  0.098  0.875  0.500-   6 1.95  16 1.95  55 1.97
 112  0.902  0.875  0.500-   6 1.95  16 1.95  15 1.97
 113  1.000  0.000  0.565-  17 1.90  27 1.90  16 1.99
 114  0.000  1.000  0.649-  20 1.81  17 2.01  27 2.01
 115  0.850  0.875  0.607-  17 1.95  18 1.97   8 1.97
 116  0.150  0.875  0.607-  17 1.95  58 1.97  48 1.97
 117  0.750  1.000  0.671-  18 1.87  29 2.09  19 2.09
 118  0.750  0.000  0.755-  19 1.83  29 1.83
 119  0.094  0.875  0.719-  20 1.94  10 1.94  59 2.03
 120  0.906  0.875  0.718-  10 1.94  20 1.94  19 2.03
 121  0.750  0.250  0.246-  21 1.95  31 1.95
 122  0.750  0.250  0.329-  21 1.95  31 1.95  24 1.97
 123  0.098  0.125  0.287-  12 1.95  22 1.95  61 1.97
 124  0.902  0.125  0.287-  12 1.95  22 1.95  21 1.97
 125  0.000  0.250  0.352-  23 1.95  33 1.95  22 1.97
 126  0.000  0.250  0.435-  23 1.95  33 1.95  26 1.97
 127  0.848  0.125  0.394-  14 1.95  24 1.95  23 1.97
 128  0.152  0.125  0.394-  54 1.95  64 1.95  23 1.97
 129  0.750  0.250  0.458-  25 1.95  35 1.95  24 1.97
 130  0.750  0.250  0.542-  25 1.95  35 1.95  28 2.09
 131  0.098  0.125  0.500-  16 1.95  26 1.95  65 1.97
 132  0.902  0.125  0.500-  16 1.95  26 1.95  25 1.97
 133  1.000  0.250  0.565-  27 1.90  37 1.90  26 1.99
 134  0.000  0.250  0.649-  30 1.81  37 2.01  27 2.01
 135  0.850  0.125  0.607-  27 1.95  18 1.97  28 1.97
 136  0.150  0.125  0.607-  27 1.95  58 1.97  68 1.97
 137  0.750  0.250  0.671-  28 1.87  29 2.09  39 2.09
 138  0.750  0.250  0.755-  39 1.83  29 1.83
 139  0.094  0.125  0.719-  20 1.94  30 1.94  69 2.03
 140  0.906  0.125  0.718-  30 1.94  20 1.94  29 2.03
 141  0.750  0.500  0.246-   1 1.95  31 1.95
 142  0.750  0.500  0.329-   1 1.95  31 1.95  34 1.97
 143  0.098  0.375  0.287-  22 1.95  32 1.95  71 1.97
 144  0.902  0.375  0.287-  22 1.95  32 1.95  31 1.97
 145  0.000  0.500  0.352-   3 1.95  33 1.95  32 1.97
 146  0.000  0.500  0.435-   3 1.95  33 1.95  36 1.97
 147  0.848  0.375  0.394-  24 1.95  34 1.95  33 1.97
 148  0.152  0.375  0.394-  64 1.95  74 1.95  33 1.97
 149  0.750  0.500  0.458-   5 1.95  35 1.95  34 1.97
 150  0.750  0.500  0.542-   5 1.95  35 1.95  38 2.09
 151  0.098  0.375  0.500-  26 1.95  36 1.95  75 1.97
 152  0.902  0.375  0.500-  26 1.95  36 1.95  35 1.97
 153  1.000  0.500  0.565-   7 1.90  37 1.90  36 1.99
 154  0.000  0.500  0.649-  40 1.81  37 2.01   7 2.01
 155  0.850  0.375  0.607-  37 1.95  28 1.97  38 1.97
 156  0.150  0.375  0.607-  37 1.95  68 1.97  78 1.97
 157  0.750  0.500  0.671-  38 1.87  39 2.09   9 2.09
 158  0.749  0.500  0.755-   9 1.83  39 1.83
 159  0.094  0.375  0.719-  40 1.95  30 1.95  79 2.02
 160  0.906  0.375  0.718-  40 1.94  30 1.94  39 2.03
 161  0.250  0.750  0.246-  41 1.95  51 1.95
 162  0.250  0.750  0.329-  41 1.95  51 1.95  44 1.97
 163  0.598  0.625  0.287-  42 1.95  72 1.95   1 1.97
 164  0.402  0.625  0.287-  42 1.95  72 1.95  41 1.97
 165  0.500  0.750  0.352-  43 1.95  53 1.95  42 1.97
 166  0.500  0.750  0.435-  43 1.95  53 1.95  46 1.97
 167  0.348  0.625  0.394-  44 1.95  74 1.95  43 1.97
 168  0.652  0.625  0.394-   4 1.95  34 1.95  43 1.97
 169  0.250  0.750  0.458-  45 1.95  55 1.95  44 1.97
 170  0.250  0.750  0.542-  45 1.95  55 1.95  48 2.08
 171  0.598  0.625  0.500-  46 1.95  76 1.95   5 1.97
 172  0.402  0.625  0.500-  46 1.95  76 1.95  45 1.97
 173  0.500  0.749  0.565-  57 1.89  47 1.91  46 1.99
 174  0.501  0.751  0.648-  50 1.81  57 2.00  47 2.00
 175  0.350  0.625  0.607-  47 1.95  48 1.97  78 1.97
 176  0.650  0.625  0.607-  47 1.95  38 1.97   8 1.97
 177  0.249  0.750  0.671-  48 1.87  49 2.08  59 2.09
 178  0.251  0.750  0.755-  49 1.83  59 1.83
 179  0.594  0.626  0.718-  50 1.93  80 1.95   9 2.02
 180  0.405  0.627  0.716-  50 1.93  80 1.95  49 2.02
 181  0.250  0.000  0.246-  51 1.95  61 1.95
 182  0.250  0.000  0.329-  51 1.95  61 1.95  54 1.97
 183  0.598  0.875  0.287-  42 1.95  52 1.95  11 1.97
 184  0.402  0.875  0.287-  42 1.95  52 1.95  51 1.97
 185  0.500  0.000  0.352-  53 1.95  63 1.95  52 1.97
 186  0.500  0.000  0.435-  53 1.95  63 1.95  56 1.97
 187  0.348  0.875  0.394-  44 1.95  54 1.95  53 1.97
 188  0.652  0.875  0.394-   4 1.95  14 1.95  53 1.97
 189  0.250  0.000  0.458-  55 1.95  65 1.95  54 1.97
 190  0.250  0.000  0.542-  55 1.95  65 1.95  58 2.09
 191  0.598  0.875  0.500-  46 1.95  56 1.95  15 1.97
 192  0.402  0.875  0.500-  46 1.95  56 1.95  55 1.97
 193  0.500  1.000  0.565-  57 1.90  67 1.90  56 1.98
 194  0.500  0.000  0.648-  60 1.81  57 2.01  67 2.01
 195  0.350  0.875  0.607-  57 1.95  48 1.97  58 1.97
 196  0.650  0.875  0.607-  57 1.95  18 1.97   8 1.97
 197  0.250  1.000  0.671-  58 1.87  59 2.09  69 2.09
 198  0.250  0.000  0.755-  59 1.83  69 1.83
 199  0.594  0.876  0.718-  60 1.94  50 1.94  19 2.02
 200  0.406  0.875  0.718-  60 1.94  50 1.95  59 2.02
 201  0.250  0.250  0.246-  61 1.95  71 1.95
 202  0.250  0.250  0.329-  61 1.95  71 1.95  64 1.97
 203  0.598  0.125  0.287-  52 1.95  62 1.95  21 1.97
 204  0.402  0.125  0.287-  52 1.95  62 1.95  61 1.97
 205  0.500  0.250  0.352-  63 1.95  73 1.95  62 1.97
 206  0.500  0.250  0.435-  63 1.95  73 1.95  66 1.97
 207  0.348  0.125  0.394-  54 1.95  64 1.95  63 1.97
 208  0.652  0.125  0.394-  14 1.95  24 1.95  63 1.97
 209  0.250  0.250  0.458-  65 1.95  75 1.95  64 1.97
 210  0.250  0.250  0.542-  65 1.95  75 1.95  68 2.08
 211  0.598  0.125  0.500-  56 1.95  66 1.95  25 1.97
 212  0.402  0.125  0.500-  56 1.95  66 1.95  65 1.97
 213  0.500  0.251  0.565-  67 1.89  77 1.91  66 1.99
 214  0.501  0.249  0.648-  70 1.81  67 2.00  77 2.00
 215  0.350  0.125  0.607-  67 1.95  68 1.97  58 1.97
 216  0.650  0.125  0.607-  67 1.95  18 1.97  28 1.97
 217  0.249  0.250  0.671-  68 1.87  79 2.08  69 2.09
 218  0.251  0.250  0.755-  79 1.83  69 1.83
 219  0.594  0.124  0.718-  60 1.94  70 1.94  29 2.02
 220  0.406  0.125  0.718-  60 1.94  70 1.95  69 2.02
 221  0.250  0.500  0.246-  41 1.95  71 1.95
 222  0.250  0.500  0.329-  41 1.95  71 1.95  74 1.97
 223  0.598  0.375  0.287-  62 1.95  72 1.95  31 1.97
 224  0.402  0.375  0.287-  62 1.95  72 1.95  71 1.97
 225  0.500  0.500  0.352-  43 1.95  73 1.95  72 1.97
 226  0.500  0.500  0.435-  43 1.95  73 1.95  76 1.97
 227  0.348  0.375  0.394-  64 1.95  74 1.95  73 1.97
 228  0.652  0.375  0.394-  24 1.95  34 1.95  73 1.97
 229  0.250  0.500  0.458-  45 1.95  75 1.95  74 1.97
 230  0.250  0.500  0.542-  45 1.95  75 1.95  78 2.08
 231  0.598  0.375  0.500-  66 1.95  76 1.95  35 1.97
 232  0.402  0.375  0.500-  66 1.95  76 1.95  75 1.97
 233  0.500  0.500  0.565-  47 1.90  77 1.90  76 2.00
 234  0.500  0.500  0.649-  80 1.85  77 2.00  47 2.00
 235  0.350  0.375  0.607-  77 1.95  68 1.97  78 1.97
 236  0.650  0.375  0.607-  77 1.95  38 1.97  28 1.97
 237  0.248  0.500  0.671-  78 1.87  79 2.09  49 2.09
 238  0.254  0.500  0.755-  49 1.84  79 1.84
 239  0.594  0.374  0.718-  70 1.93  80 1.95  39 2.02
 240  0.405  0.373  0.716-  70 1.93  80 1.95  79 2.02


IMPORTANT INFORMATION: All symmetrisations will be switched off!
NOSYMM: (Re-)initialisation of all symmetry stuff for point group C_1.


----------------------------------------------------------------------------------------

                                     Primitive cell                                     

  volume of cell :    4687.8040

  direct lattice vectors                    reciprocal lattice vectors
    12.981773603  0.000000000  0.000000000     0.077031077  0.000000000  0.000000000
     0.000000000 11.829932295  0.000000000     0.000000000  0.084531338  0.000000000
     0.000000000  0.000000000 30.524823105     0.000000000  0.000000000  0.032760223

  length of vectors
    12.981773603 11.829932295 30.524823105     0.077031077  0.084531338  0.032760223

  position of ions in fractional coordinates (direct lattice)
     0.750000000  0.625000000  0.287357103
     0.000000000  0.750000000  0.287357103
     0.000000000  0.625000000  0.393678552
     0.750000000  0.750000000  0.393678552
     0.750000000  0.625000000  0.500000000
     0.000000000  0.750000000  0.500000000
     0.999962675  0.625024785  0.604140270
     0.749985772  0.749994585  0.610110800
     0.749367869  0.625059645  0.719607031
     0.999861507  0.750145119  0.708090504
     0.750000000  0.875000000  0.287357103
     0.000000000  0.000000000  0.287357103
     0.000000000  0.875000000  0.393678552
     0.750000000  0.000000000  0.393678552
     0.750000000  0.875000000  0.500000000
     0.000000000  0.000000000  0.500000000
     0.999992116  0.875026301  0.604181752
     0.750025828  0.999999995  0.610119633
     0.749788572  0.875070826  0.719651437
     0.000206971  0.999999999  0.708089718
     0.750000000  0.125000000  0.287357103
     0.000000000  0.250000000  0.287357103
     0.000000000  0.125000000  0.393678552
     0.750000000  0.250000000  0.393678552
     0.750000000  0.125000000  0.500000000
     0.000000000  0.250000000  0.500000000
     0.999992113  0.124973706  0.604181755
     0.749985775  0.250005412  0.610110797
     0.749788571  0.124929172  0.719651433
     0.999861508  0.249854880  0.708090505
     0.750000000  0.375000000  0.287357103
     0.000000000  0.500000000  0.287357103
     0.000000000  0.375000000  0.393678552
     0.750000000  0.500000000  0.393678552
     0.750000000  0.375000000  0.500000000
     0.000000000  0.500000000  0.500000000
     0.999962674  0.374975221  0.604140267
     0.750006238  0.500000001  0.610169645
     0.749367868  0.374940353  0.719607027
     0.999039127  0.500000001  0.708055337
     0.250000000  0.625000000  0.287357103
     0.500000000  0.750000000  0.287357103
     0.500000000  0.625000000  0.393678552
     0.250000000  0.750000000  0.393678552
     0.250000000  0.625000000  0.500000000
     0.500000000  0.750000000  0.500000000
     0.500016313  0.624030786  0.604851310
     0.249918704  0.750081304  0.609957496
     0.248983257  0.625440685  0.719083685
     0.500194682  0.750255812  0.707493918
     0.250000000  0.875000000  0.287357103
     0.500000000  0.000000000  0.287357103
     0.500000000  0.875000000  0.393678552
     0.250000000  0.000000000  0.393678552
     0.250000000  0.875000000  0.500000000
     0.500000000  0.000000000  0.500000000
     0.500140208  0.874577674  0.603655884
     0.250114298  0.999999998  0.610125473
     0.250296354  0.875087796  0.719672242
     0.499994123  0.999999998  0.707550419
     0.250000000  0.125000000  0.287357103
     0.500000000  0.250000000  0.287357103
     0.500000000  0.125000000  0.393678552
     0.250000000  0.250000000  0.393678552
     0.250000000  0.125000000  0.500000000
     0.500000000  0.250000000  0.500000000
     0.500140211  0.125422340  0.603655881
     0.249918702  0.249918696  0.609957489
     0.250296354  0.124912212  0.719672239
     0.500194682  0.249744192  0.707493916
     0.250000000  0.375000000  0.287357103
     0.500000000  0.500000000  0.287357103
     0.500000000  0.375000000  0.393678552
     0.250000000  0.500000000  0.393678552
     0.250000000  0.375000000  0.500000000
     0.500000000  0.500000000  0.500000000
     0.500016315  0.375969227  0.604851325
     0.249746225  0.500000004  0.609956692
     0.248983256  0.374559320  0.719083670
     0.498604631  0.500000003  0.710104504
     0.750000000  0.750000000  0.245701670
     0.750000000  0.750000000  0.329012537
     0.097946921  0.625000000  0.287357103
     0.902053079  0.625000000  0.287357103
     0.000000000  0.750000000  0.352023118
     0.000000000  0.750000000  0.435333986
     0.847946921  0.625000000  0.393678552
     0.152053079  0.625000000  0.393678552
     0.750000000  0.750000000  0.458344566
     0.750000000  0.750000000  0.541655434
     0.097946921  0.625000000  0.500000000
     0.902053079  0.625000000  0.500000000
     0.999927376  0.750073859  0.565163625
     0.000237414  0.749932943  0.648712554
     0.850110097  0.625064220  0.606837088
     0.149806187  0.625138083  0.606587403
     0.750071235  0.750162970  0.671258478
     0.749671301  0.749993755  0.754903535
     0.093504185  0.624628487  0.718828778
     0.905849987  0.625110823  0.718391166
     0.750000000  0.000000000  0.245701670
     0.750000000  0.000000000  0.329012537
     0.097946921  0.875000000  0.287357103
     0.902053079  0.875000000  0.287357103
     0.000000000  0.000000000  0.352023118
     0.000000000  0.000000000  0.435333986
     0.847946921  0.875000000  0.393678552
     0.152053079  0.875000000  0.393678552
     0.750000000  0.000000000  0.458344566
     0.750000000  0.000000000  0.541655434
     0.097946921  0.875000000  0.500000000
     0.902053079  0.875000000  0.500000000
     0.999926350  0.000000004  0.565170343
     0.000192730  0.999999999  0.648707758
     0.850158972  0.874993432  0.606864582
     0.149915425  0.875178976  0.606746841
     0.750161188  0.999999997  0.671268887
     0.750204421  0.000000000  0.754936412
     0.093829711  0.874928688  0.718561269
     0.906203068  0.874940775  0.718367335
     0.750000000  0.250000000  0.245701670
     0.750000000  0.250000000  0.329012537
     0.097946921  0.125000000  0.287357103
     0.902053079  0.125000000  0.287357103
     0.000000000  0.250000000  0.352023118
     0.000000000  0.250000000  0.435333986
     0.847946921  0.125000000  0.393678552
     0.152053079  0.125000000  0.393678552
     0.750000000  0.250000000  0.458344566
     0.750000000  0.250000000  0.541655434
     0.097946921  0.125000000  0.500000000
     0.902053079  0.125000000  0.500000000
     0.999927376  0.249926143  0.565163627
     0.000237416  0.250067065  0.648712554
     0.850158973  0.125006569  0.606864585
     0.149915424  0.124821027  0.606746841
     0.750071234  0.249837031  0.671258475
     0.749671300  0.250006244  0.754903530
     0.093829706  0.125071312  0.718561271
     0.906203069  0.125059221  0.718367336
     0.750000000  0.500000000  0.245701670
     0.750000000  0.500000000  0.329012537
     0.097946921  0.375000000  0.287357103
     0.902053079  0.375000000  0.287357103
     0.000000000  0.500000000  0.352023118
     0.000000000  0.500000000  0.435333986
     0.847946921  0.375000000  0.393678552
     0.152053079  0.375000000  0.393678552
     0.750000000  0.500000000  0.458344566
     0.750000000  0.500000000  0.541655434
     0.097946921  0.375000000  0.500000000
     0.902053079  0.375000000  0.500000000
     0.999888228  0.500000006  0.565153527
     0.000081513  0.499999998  0.648679979
     0.850110096  0.374935780  0.606837087
     0.149806186  0.374861922  0.606587401
     0.750404164  0.500000004  0.671300232
     0.748944741  0.499999998  0.754864568
     0.093504181  0.375371515  0.718828780
     0.905849986  0.374889181  0.718391167
     0.250000000  0.750000000  0.245701670
     0.250000000  0.750000000  0.329012537
     0.597946921  0.625000000  0.287357103
     0.402053079  0.625000000  0.287357103
     0.500000000  0.750000000  0.352023118
     0.500000000  0.750000000  0.435333986
     0.347946921  0.625000000  0.393678552
     0.652053079  0.625000000  0.393678552
     0.250000000  0.750000000  0.458344566
     0.250000000  0.750000000  0.541655434
     0.597946921  0.625000000  0.500000000
     0.402053079  0.625000000  0.500000000
     0.499894354  0.749147378  0.565132650
     0.500560329  0.750891006  0.648228831
     0.349805234  0.624994480  0.607121284
     0.650118657  0.624943372  0.606946629
     0.248585086  0.750364003  0.671209456
     0.250584445  0.749509090  0.754843588
     0.593543768  0.625913458  0.717853962
     0.404788489  0.627303089  0.716372467
     0.250000000  0.000000000  0.245701670
     0.250000000  0.000000000  0.329012537
     0.597946921  0.875000000  0.287357103
     0.402053079  0.875000000  0.287357103
     0.500000000  0.000000000  0.352023118
     0.500000000  0.000000000  0.435333986
     0.347946921  0.875000000  0.393678552
     0.652053079  0.875000000  0.393678552
     0.250000000  0.000000000  0.458344566
     0.250000000  0.000000000  0.541655434
     0.597946921  0.875000000  0.500000000
     0.402053079  0.875000000  0.500000000
     0.499944247  0.999999999  0.564891483
     0.499986595  0.000000005  0.648249551
     0.349901413  0.874933648  0.606768036
     0.650116515  0.875088871  0.606648326
     0.249874976  0.999999996  0.671365591
     0.249972219  0.000000001  0.754982613
     0.593912298  0.875519078  0.718171301
     0.406038602  0.875161672  0.718154001
     0.250000000  0.250000000  0.245701670
     0.250000000  0.250000000  0.329012537
     0.597946921  0.125000000  0.287357103
     0.402053079  0.125000000  0.287357103
     0.500000000  0.250000000  0.352023118
     0.500000000  0.250000000  0.435333986
     0.347946921  0.125000000  0.393678552
     0.652053079  0.125000000  0.393678552
     0.250000000  0.250000000  0.458344566
     0.250000000  0.250000000  0.541655434
     0.597946921  0.125000000  0.500000000
     0.402053079  0.125000000  0.500000000
     0.499894352  0.250852639  0.565132651
     0.500560332  0.249108992  0.648228828
     0.349901415  0.125066353  0.606768033
     0.650116515  0.124911128  0.606648323
     0.248585082  0.249635990  0.671209452
     0.250584451  0.250490919  0.754843579
     0.593912300  0.124480920  0.718171297
     0.406038604  0.124838330  0.718154000
     0.250000000  0.500000000  0.245701670
     0.250000000  0.500000000  0.329012537
     0.597946921  0.375000000  0.287357103
     0.402053079  0.375000000  0.287357103
     0.500000000  0.500000000  0.352023118
     0.500000000  0.500000000  0.435333986
     0.347946921  0.375000000  0.393678552
     0.652053079  0.375000000  0.393678552
     0.250000000  0.500000000  0.458344566
     0.250000000  0.500000000  0.541655434
     0.597946921  0.375000000  0.500000000
     0.402053079  0.375000000  0.500000000
     0.499889021  0.500000002  0.565387522
     0.500153568  0.500000012  0.649468659
     0.349805240  0.375005527  0.607121287
     0.650118655  0.375056632  0.606946632
     0.247675215  0.500000004  0.671099995
     0.254410047  0.499999995  0.754689948
     0.593543767  0.374086545  0.717853957
     0.404788489  0.372696913  0.716372448

  ion indices of the primitive-cell ions
   primitive index   ion index
                 1           1
                 2           2
                 3           3
                 4           4
                 5           5
                 6           6
                 7           7
                 8           8
                 9           9
                10          10
                11          11
                12          12
                13          13
                14          14
                15          15
                16          16
                17          17
                18          18
                19          19
                20          20
                21          21
                22          22
                23          23
                24          24
                25          25
                26          26
                27          27
                28          28
                29          29
                30          30
                31          31
                32          32
                33          33
                34          34
                35          35
                36          36
                37          37
                38          38
                39          39
                40          40
                41          41
                42          42
                43          43
                44          44
                45          45
                46          46
                47          47
                48          48
                49          49
                50          50
                51          51
                52          52
                53          53
                54          54
                55          55
                56          56
                57          57
                58          58
                59          59
                60          60
                61          61
                62          62
                63          63
                64          64
                65          65
                66          66
                67          67
                68          68
                69          69
                70          70
                71          71
                72          72
                73          73
                74          74
                75          75
                76          76
                77          77
                78          78
                79          79
                80          80
                81          81
                82          82
                83          83
                84          84
                85          85
                86          86
                87          87
                88          88
                89          89
                90          90
                91          91
                92          92
                93          93
                94          94
                95          95
                96          96
                97          97
                98          98
                99          99
               100         100
               101         101
               102         102
               103         103
               104         104
               105         105
               106         106
               107         107
               108         108
               109         109
               110         110
               111         111
               112         112
               113         113
               114         114
               115         115
               116         116
               117         117
               118         118
               119         119
               120         120
               121         121
               122         122
               123         123
               124         124
               125         125
               126         126
               127         127
               128         128
               129         129
               130         130
               131         131
               132         132
               133         133
               134         134
               135         135
               136         136
               137         137
               138         138
               139         139
               140         140
               141         141
               142         142
               143         143
               144         144
               145         145
               146         146
               147         147
               148         148
               149         149
               150         150
               151         151
               152         152
               153         153
               154         154
               155         155
               156         156
               157         157
               158         158
               159         159
               160         160
               161         161
               162         162
               163         163
               164         164
               165         165
               166         166
               167         167
               168         168
               169         169
               170         170
               171         171
               172         172
               173         173
               174         174
               175         175
               176         176
               177         177
               178         178
               179         179
               180         180
               181         181
               182         182
               183         183
               184         184
               185         185
               186         186
               187         187
               188         188
               189         189
               190         190
               191         191
               192         192
               193         193
               194         194
               195         195
               196         196
               197         197
               198         198
               199         199
               200         200
               201         201
               202         202
               203         203
               204         204
               205         205
               206         206
               207         207
               208         208
               209         209
               210         210
               211         211
               212         212
               213         213
               214         214
               215         215
               216         216
               217         217
               218         218
               219         219
               220         220
               221         221
               222         222
               223         223
               224         224
               225         225
               226         226
               227         227
               228         228
               229         229
               230         230
               231         231
               232         232
               233         233
               234         234
               235         235
               236         236
               237         237
               238         238
               239         239
               240         240

----------------------------------------------------------------------------------------



 KPOINTS: pymatgen v2020.8.13 with grid density = 

Automatic generation of k-mesh.
 Grid dimensions read from file:
 generate k-points for:    2    2    1

 Generating k-lattice:

  Cartesian coordinates                     Fractional coordinates (reciprocal lattice)
     0.038515538  0.000000000  0.000000000     0.500000000  0.000000000  0.000000000
     0.000000000  0.042265669  0.000000000     0.000000000  0.500000000  0.000000000
     0.000000000  0.000000000  0.032760223     0.000000000  0.000000000  1.000000000

  Length of vectors
     0.038515538  0.042265669  0.032760223

  Shift w.r.t. Gamma in fractional coordinates (k-lattice)
     0.000000000  0.000000000  0.000000000

 
 Subroutine IBZKPT returns following result:
 ===========================================
 
 Found      4 irreducible k-points:
 
 Following reciprocal coordinates:
            Coordinates               Weight
  0.000000  0.000000  0.000000      1.000000
  0.500000  0.000000  0.000000      1.000000
  0.000000  0.500000  0.000000      1.000000
  0.500000  0.500000  0.000000      1.000000
 
 Following cartesian coordinates:
            Coordinates               Weight
  0.000000  0.000000  0.000000      1.000000
  0.038516  0.000000  0.000000      1.000000
  0.000000  0.042266  0.000000      1.000000
  0.038516  0.042266  0.000000      1.000000
 
 
 Subroutine IBZKPT_HF returns following result:
 ==============================================
 
 Found      4 k-points in 1st BZ
 the following      4 k-points will be used (e.g. in the exchange kernel)
 Following reciprocal coordinates:   # in IRBZ
  0.000000  0.000000  0.000000    0.25000000   1 t-inv F
  0.500000  0.000000  0.000000    0.25000000   2 t-inv F
  0.000000  0.500000  0.000000    0.25000000   3 t-inv F
  0.500000  0.500000  0.000000    0.25000000   4 t-inv F


--------------------------------------------------------------------------------------------------------




 Dimension of arrays:
   k-points           NKPTS =      4   k-points in BZ     NKDIM =      4   number of bands    NBANDS=    768
   number of dos      NEDOS =    301   number of ions     NIONS =    240
   non local maximal  LDIM  =      5   non local SUM 2l+1 LMDIM =     15
   total plane-waves  NPLWV = 907200
   max r-space proj   IRMAX =      1   max aug-charges    IRDMAX=  13564
   dimension x,y,z NGX =    72 NGY =   70 NGZ =  180
   dimension x,y,z NGXF=   144 NGYF=  140 NGZF=  360
   support grid    NGXF=   144 NGYF=  140 NGZF=  360
   ions per type =              80 160
   NGX,Y,Z   is equivalent  to a cutoff of   9.22,  9.84,  9.80 a.u.
   NGXF,Y,Z  is equivalent  to a cutoff of  18.44, 19.67, 19.61 a.u.

 SYSTEM =  TiO2                                    
 POSCAR =  Ti  O                                   

--------------------------------------------------------------------------------------------------------


  energy-cutoff  :      520.00
  volume of cell :     4687.80
      direct lattice vectors                 reciprocal lattice vectors
    12.981773603  0.000000000  0.000000000     0.077031077  0.000000000  0.000000000
     0.000000000 11.829932295  0.000000000     0.000000000  0.084531338  0.000000000
     0.000000000  0.000000000 30.524823105     0.000000000  0.000000000  0.032760223

  length of vectors
    12.981773603 11.829932295 30.524823105     0.077031077  0.084531338  0.032760223



 k-points in units of 2pi/SCALE and weight: pymatgen v2020.8.13 with grid density = 
   0.00000000  0.00000000  0.00000000       0.250
   0.03851554  0.00000000  0.00000000       0.250
   0.00000000  0.04226567  0.00000000       0.250
   0.03851554  0.04226567  0.00000000       0.250

 k-points in reciprocal lattice and weights: pymatgen v2020.8.13 with grid density = 
   0.00000000  0.00000000  0.00000000       0.250
   0.50000000  0.00000000  0.00000000       0.250
   0.00000000  0.50000000  0.00000000       0.250
   0.50000000  0.50000000  0.00000000       0.250

 position of ions in fractional coordinates (direct lattice) 
   0.75000000  0.62500000  0.28735710
   0.00000000  0.75000000  0.28735710
   0.00000000  0.62500000  0.39367855
   0.75000000  0.75000000  0.39367855
   0.75000000  0.62500000  0.50000000
   0.00000000  0.75000000  0.50000000
   0.99996268  0.62502479  0.60414027
   0.74998577  0.74999458  0.61011080
   0.74936787  0.62505965  0.71960703
   0.99986151  0.75014512  0.70809050
   0.75000000  0.87500000  0.28735710
   0.00000000  0.00000000  0.28735710
   0.00000000  0.87500000  0.39367855
   0.75000000  0.00000000  0.39367855
   0.75000000  0.87500000  0.50000000
   0.00000000  0.00000000  0.50000000
   0.99999212  0.87502630  0.60418175
   0.75002583  1.00000000  0.61011963
   0.74978857  0.87507083  0.71965144
   0.00020697  1.00000000  0.70808972
   0.75000000  0.12500000  0.28735710
   0.00000000  0.25000000  0.28735710
   0.00000000  0.12500000  0.39367855
   0.75000000  0.25000000  0.39367855
   0.75000000  0.12500000  0.50000000
   0.00000000  0.25000000  0.50000000
   0.99999211  0.12497371  0.60418175
   0.74998578  0.25000541  0.61011080
   0.74978857  0.12492917  0.71965143
   0.99986151  0.24985488  0.70809050
   0.75000000  0.37500000  0.28735710
   0.00000000  0.50000000  0.28735710
   0.00000000  0.37500000  0.39367855
   0.75000000  0.50000000  0.39367855
   0.75000000  0.37500000  0.50000000
   0.00000000  0.50000000  0.50000000
   0.99996267  0.37497522  0.60414027
   0.75000624  0.50000000  0.61016965
   0.74936787  0.37494035  0.71960703
   0.99903913  0.50000000  0.70805534
   0.25000000  0.62500000  0.28735710
   0.50000000  0.75000000  0.28735710
   0.50000000  0.62500000  0.39367855
   0.25000000  0.75000000  0.39367855
   0.25000000  0.62500000  0.50000000
   0.50000000  0.75000000  0.50000000
   0.50001631  0.62403079  0.60485131
   0.24991870  0.75008130  0.60995750
   0.24898326  0.62544068  0.71908368
   0.50019468  0.75025581  0.70749392
   0.25000000  0.87500000  0.28735710
   0.50000000  0.00000000  0.28735710
   0.50000000  0.87500000  0.39367855
   0.25000000  0.00000000  0.39367855
   0.25000000  0.87500000  0.50000000
   0.50000000  0.00000000  0.50000000
   0.50014021  0.87457767  0.60365588
   0.25011430  1.00000000  0.61012547
   0.25029635  0.87508780  0.71967224
   0.49999412  1.00000000  0.70755042
   0.25000000  0.12500000  0.28735710
   0.50000000  0.25000000  0.28735710
   0.50000000  0.12500000  0.39367855
   0.25000000  0.25000000  0.39367855
   0.25000000  0.12500000  0.50000000
   0.50000000  0.25000000  0.50000000
   0.50014021  0.12542234  0.60365588
   0.24991870  0.24991870  0.60995749
   0.25029635  0.12491221  0.71967224
   0.50019468  0.24974419  0.70749392
   0.25000000  0.37500000  0.28735710
   0.50000000  0.50000000  0.28735710
   0.50000000  0.37500000  0.39367855
   0.25000000  0.50000000  0.39367855
   0.25000000  0.37500000  0.50000000
   0.50000000  0.50000000  0.50000000
   0.50001632  0.37596923  0.60485132
   0.24974623  0.50000000  0.60995669
   0.24898326  0.37455932  0.71908367
   0.49860463  0.50000000  0.71010450
   0.75000000  0.75000000  0.24570167
   0.75000000  0.75000000  0.32901254
   0.09794692  0.62500000  0.28735710
   0.90205308  0.62500000  0.28735710
   0.00000000  0.75000000  0.35202312
   0.00000000  0.75000000  0.43533399
   0.84794692  0.62500000  0.39367855
   0.15205308  0.62500000  0.39367855
   0.75000000  0.75000000  0.45834457
   0.75000000  0.75000000  0.54165543
   0.09794692  0.62500000  0.50000000
   0.90205308  0.62500000  0.50000000
   0.99992738  0.75007386  0.56516363
   0.00023741  0.74993294  0.64871255
   0.85011010  0.62506422  0.60683709
   0.14980619  0.62513808  0.60658740
   0.75007124  0.75016297  0.67125848
   0.74967130  0.74999375  0.75490354
   0.09350418  0.62462849  0.71882878
   0.90584999  0.62511082  0.71839117
   0.75000000  0.00000000  0.24570167
   0.75000000  0.00000000  0.32901254
   0.09794692  0.87500000  0.28735710
   0.90205308  0.87500000  0.28735710
   0.00000000  0.00000000  0.35202312
   0.00000000  0.00000000  0.43533399
   0.84794692  0.87500000  0.39367855
   0.15205308  0.87500000  0.39367855
   0.75000000  0.00000000  0.45834457
   0.75000000  0.00000000  0.54165543
   0.09794692  0.87500000  0.50000000
   0.90205308  0.87500000  0.50000000
   0.99992635  0.00000000  0.56517034
   0.00019273  1.00000000  0.64870776
   0.85015897  0.87499343  0.60686458
   0.14991542  0.87517898  0.60674684
   0.75016119  1.00000000  0.67126889
   0.75020442  0.00000000  0.75493641
   0.09382971  0.87492869  0.71856127
   0.90620307  0.87494078  0.71836734
   0.75000000  0.25000000  0.24570167
   0.75000000  0.25000000  0.32901254
   0.09794692  0.12500000  0.28735710
   0.90205308  0.12500000  0.28735710
   0.00000000  0.25000000  0.35202312
   0.00000000  0.25000000  0.43533399
   0.84794692  0.12500000  0.39367855
   0.15205308  0.12500000  0.39367855
   0.75000000  0.25000000  0.45834457
   0.75000000  0.25000000  0.54165543
   0.09794692  0.12500000  0.50000000
   0.90205308  0.12500000  0.50000000
   0.99992738  0.24992614  0.56516363
   0.00023742  0.25006706  0.64871255
   0.85015897  0.12500657  0.60686459
   0.14991542  0.12482103  0.60674684
   0.75007123  0.24983703  0.67125848
   0.74967130  0.25000624  0.75490353
   0.09382971  0.12507131  0.71856127
   0.90620307  0.12505922  0.71836734
   0.75000000  0.50000000  0.24570167
   0.75000000  0.50000000  0.32901254
   0.09794692  0.37500000  0.28735710
   0.90205308  0.37500000  0.28735710
   0.00000000  0.50000000  0.35202312
   0.00000000  0.50000000  0.43533399
   0.84794692  0.37500000  0.39367855
   0.15205308  0.37500000  0.39367855
   0.75000000  0.50000000  0.45834457
   0.75000000  0.50000000  0.54165543
   0.09794692  0.37500000  0.50000000
   0.90205308  0.37500000  0.50000000
   0.99988823  0.50000001  0.56515353
   0.00008151  0.50000000  0.64867998
   0.85011010  0.37493578  0.60683709
   0.14980619  0.37486192  0.60658740
   0.75040416  0.50000000  0.67130023
   0.74894474  0.50000000  0.75486457
   0.09350418  0.37537152  0.71882878
   0.90584999  0.37488918  0.71839117
   0.25000000  0.75000000  0.24570167
   0.25000000  0.75000000  0.32901254
   0.59794692  0.62500000  0.28735710
   0.40205308  0.62500000  0.28735710
   0.50000000  0.75000000  0.35202312
   0.50000000  0.75000000  0.43533399
   0.34794692  0.62500000  0.39367855
   0.65205308  0.62500000  0.39367855
   0.25000000  0.75000000  0.45834457
   0.25000000  0.75000000  0.54165543
   0.59794692  0.62500000  0.50000000
   0.40205308  0.62500000  0.50000000
   0.49989435  0.74914738  0.56513265
   0.50056033  0.75089101  0.64822883
   0.34980523  0.62499448  0.60712128
   0.65011866  0.62494337  0.60694663
   0.24858509  0.75036400  0.67120946
   0.25058444  0.74950909  0.75484359
   0.59354377  0.62591346  0.71785396
   0.40478849  0.62730309  0.71637247
   0.25000000  0.00000000  0.24570167
   0.25000000  0.00000000  0.32901254
   0.59794692  0.87500000  0.28735710
   0.40205308  0.87500000  0.28735710
   0.50000000  0.00000000  0.35202312
   0.50000000  0.00000000  0.43533399
   0.34794692  0.87500000  0.39367855
   0.65205308  0.87500000  0.39367855
   0.25000000  0.00000000  0.45834457
   0.25000000  0.00000000  0.54165543
   0.59794692  0.87500000  0.50000000
   0.40205308  0.87500000  0.50000000
   0.49994425  1.00000000  0.56489148
   0.49998659  0.00000001  0.64824955
   0.34990141  0.87493365  0.60676804
   0.65011651  0.87508887  0.60664833
   0.24987498  1.00000000  0.67136559
   0.24997222  0.00000000  0.75498261
   0.59391230  0.87551908  0.71817130
   0.40603860  0.87516167  0.71815400
   0.25000000  0.25000000  0.24570167
   0.25000000  0.25000000  0.32901254
   0.59794692  0.12500000  0.28735710
   0.40205308  0.12500000  0.28735710
   0.50000000  0.25000000  0.35202312
   0.50000000  0.25000000  0.43533399
   0.34794692  0.12500000  0.39367855
   0.65205308  0.12500000  0.39367855
   0.25000000  0.25000000  0.45834457
   0.25000000  0.25000000  0.54165543
   0.59794692  0.12500000  0.50000000
   0.40205308  0.12500000  0.50000000
   0.49989435  0.25085264  0.56513265
   0.50056033  0.24910899  0.64822883
   0.34990141  0.12506635  0.60676803
   0.65011652  0.12491113  0.60664832
   0.24858508  0.24963599  0.67120945
   0.25058445  0.25049092  0.75484358
   0.59391230  0.12448092  0.71817130
   0.40603860  0.12483833  0.71815400
   0.25000000  0.50000000  0.24570167
   0.25000000  0.50000000  0.32901254
   0.59794692  0.37500000  0.28735710
   0.40205308  0.37500000  0.28735710
   0.50000000  0.50000000  0.35202312
   0.50000000  0.50000000  0.43533399
   0.34794692  0.37500000  0.39367855
   0.65205308  0.37500000  0.39367855
   0.25000000  0.50000000  0.45834457
   0.25000000  0.50000000  0.54165543
   0.59794692  0.37500000  0.50000000
   0.40205308  0.37500000  0.50000000
   0.49988902  0.50000000  0.56538752
   0.50015357  0.50000001  0.64946866
   0.34980524  0.37500553  0.60712129
   0.65011865  0.37505663  0.60694663
   0.24767521  0.50000000  0.67110000
   0.25441005  0.50000000  0.75468995
   0.59354377  0.37408655  0.71785396
   0.40478849  0.37269691  0.71637245

 position of ions in cartesian coordinates  (Angst):
   9.73633020  7.39370768  8.77152475
   0.00000000  8.87244922  8.77152475
   0.00000000  7.39370768 12.01696815
   9.73633020  8.87244922 12.01696815
   9.73633020  7.39370768 15.26241155
   0.00000000  8.87244922 15.26241155
  12.98128906  7.39400089 18.44127487
   9.73614550  8.87238516 18.62352423
   9.72812402  7.39441328 21.96587732
  12.97997572  8.87416596 21.61433739
   9.73633020 10.35119076  8.77152475
   0.00000000  0.00000000  8.77152475
   0.00000000 10.35119076 12.01696815
   9.73633020  0.00000000 12.01696815
   9.73633020 10.35119076 15.26241155
   0.00000000  0.00000000 15.26241155
  12.98167125 10.35150190 18.44254110
   9.73666550 11.82993224 18.62379387
   9.73358550 10.35202862 21.96723282
   0.00268685 11.82993228 21.61431340
   9.73633020  1.47874154  8.77152475
   0.00000000  2.95748307  8.77152475
   0.00000000  1.47874154 12.01696815
   9.73633020  2.95748307 12.01696815
   9.73633020  1.47874154 15.26241155
   0.00000000  2.95748307 15.26241155
  12.98167122  1.47843047 18.44254119
   9.73614554  2.95754710 18.62352416
   9.73358548  1.47790364 21.96723269
  12.97997573  2.95576632 21.61433741
   9.73633020  4.43622461  8.77152475
   0.00000000  5.91496615  8.77152475
   0.00000000  4.43622461 12.01696815
   9.73633020  5.91496615 12.01696815
   9.73633020  4.43622461 15.26241155
   0.00000000  5.91496615 15.26241155
  12.98128904  4.43593147 18.44127478
   9.73641118  5.91496616 18.62532048
   9.72812400  4.43551899 21.96587719
  12.96929977  5.91496616 21.61326390
   3.24544340  7.39370768  8.77152475
   6.49088680  8.87244922  8.77152475
   6.49088680  7.39370768 12.01696815
   3.24544340  8.87244922 12.01696815
   3.24544340  7.39370768 15.26241155
   6.49088680  8.87244922 15.26241155
   6.49109857  7.38224195 18.46297923
   3.24438804  8.87341105 18.61884467
   3.23224427  7.39892095 21.94990228
   6.49341412  8.87547547 21.59612670
   3.24544340 10.35119076  8.77152475
   6.49088680  0.00000000  8.77152475
   6.49088680 10.35119076 12.01696815
   3.24544340  0.00000000 12.01696815
   3.24544340 10.35119076 15.26241155
   6.49088680  0.00000000 15.26241155
   6.49270695 10.34619467 18.42648909
   3.24692720 11.82993227 18.62397214
   3.24929061 10.35222937 21.96786789
   6.49081051 11.82993227 21.59785137
   3.24544340  1.47874154  8.77152475
   6.49088680  2.95748307  8.77152475
   6.49088680  1.47874154 12.01696815
   3.24544340  2.95748307 12.01696815
   3.24544340  1.47874154 15.26241155
   6.49088680  2.95748307 15.26241155
   6.49270699  1.48373779 18.42648898
   3.24438801  2.95652125 18.61884446
   3.24929060  1.47770301 21.96786778
   6.49341411  2.95445688 21.59612662
   3.24544340  4.43622461  8.77152475
   6.49088680  5.91496615  8.77152475
   6.49088680  4.43622461 12.01696815
   3.24544340  5.91496615 12.01696815
   3.24544340  4.43622461 15.26241155
   6.49088680  5.91496615 15.26241155
   6.49109860  4.44769050 18.46297970
   3.24214896  5.91496620 18.61882014
   3.23224426  4.43101140 21.94990181
   6.47277244  5.91496619 21.67581436
   9.73633020  8.87244922  7.50000000
   9.73633020  8.87244922 10.04304950
   1.27152475  7.39370768  8.77152475
  11.71024885  7.39370768  8.77152475
   0.00000000  8.87244922 10.74544340
   0.00000000  8.87244922 13.28849290
  11.00785495  7.39370768 12.01696815
   1.97391865  7.39370768 12.01696815
   9.73633020  8.87244922 13.99088680
   9.73633020  8.87244922 16.53393630
   1.27152475  7.39370768 15.26241155
  11.71024885  7.39370768 15.26241155
  12.98083082  8.87332296 17.25151968
   0.00308205  8.87165595 19.80183594
  11.03593682  7.39446740 18.52359477
   1.94475000  7.39534120 18.51597317
   9.73725496  8.87437714 20.49004630
   9.73206311  8.87237534 23.04329687
   1.21385016  7.38931271 21.94212130
  11.75953944  7.39501871 21.92876326
   9.73633020  0.00000000  7.50000000
   9.73633020  0.00000000 10.04304950
   1.27152475 10.35119076  8.77152475
  11.71024885 10.35119076  8.77152475
   0.00000000  0.00000000 10.74544340
   0.00000000  0.00000000 13.28849290
  11.00785495 10.35119076 12.01696815
   1.97391865 10.35119076 12.01696815
   9.73633020  0.00000000 13.99088680
   9.73633020  0.00000000 16.53393630
   1.27152475 10.35119076 15.26241155
  11.71024885 10.35119076 15.26241155
  12.98081749  0.00000004 17.25172475
   0.00250197 11.82993228 19.80168957
  11.03657130 10.35111306 18.52443403
   1.94616811 10.35330803 18.52084000
   9.73842271 11.82993226 20.49036404
   9.73898396  0.00000000 23.04430044
   1.21807606 10.35034714 21.93395562
  11.76412307 10.35049014 21.92803583
   9.73633020  2.95748307  7.50000000
   9.73633020  2.95748307 10.04304950
   1.27152475  1.47874154  8.77152475
  11.71024885  1.47874154  8.77152475
   0.00000000  2.95748307 10.74544340
   0.00000000  2.95748307 13.28849290
  11.00785495  1.47874154 12.01696815
   1.97391865  1.47874154 12.01696815
   9.73633020  2.95748307 13.99088680
   9.73633020  2.95748307 16.53393630
   1.27152475  1.47874154 15.26241155
  11.71024885  1.47874154 15.26241155
  12.98083082  2.95660935 17.25151973
   0.00308208  2.95827644 19.80183595
  11.03657132  1.47881925 18.52443411
   1.94616809  1.47662429 18.52084000
   9.73725495  2.95555516 20.49004621
   9.73206310  2.95755694 23.04329671
   1.21807601  1.47958515 21.93395568
  11.76412308  1.47944212 21.92803585
   9.73633020  5.91496615  7.50000000
   9.73633020  5.91496615 10.04304950
   1.27152475  4.43622461  8.77152475
  11.71024885  4.43622461  8.77152475
   0.00000000  5.91496615 10.74544340
   0.00000000  5.91496615 13.28849290
  11.00785495  4.43622461 12.01696815
   1.97391865  4.43622461 12.01696815
   9.73633020  5.91496615 13.99088680
   9.73633020  5.91496615 16.53393630
   1.27152475  4.43622461 15.26241155
  11.71024885  4.43622461 15.26241155
  12.98032261  5.91496622 17.25121142
   0.00105818  5.91496613 19.80084160
  11.03593680  4.43546489 18.52359473
   1.94475000  4.43459116 18.51597311
   9.74157697  5.91496620 20.49132084
   9.72263107  5.91496613 23.04210741
   1.21385011  4.44061961 21.94212135
  11.75953943  4.43491363 21.92876329
   3.24544340  8.87244922  7.50000000
   3.24544340  8.87244922 10.04304950
   7.76241155  7.39370768  8.77152475
   5.21936205  7.39370768  8.77152475
   6.49088680  8.87244922 10.74544340
   6.49088680  8.87244922 13.28849290
   4.51696815  7.39370768 12.01696815
   8.46480545  7.39370768 12.01696815
   3.24544340  8.87244922 13.99088680
   3.24544340  8.87244922 16.53393630
   7.76241155  7.39370768 15.26241155
   5.21936205  7.39370768 15.26241155
   6.48951533  8.86236276 17.25057418
   6.49816087  8.88298976 19.78707041
   4.54109236  7.39364239 18.53226979
   8.43969322  7.39303778 18.52693848
   3.22707531  8.87675535 20.48854990
   3.25303053  8.86664179 23.04146699
   7.70525082  7.40451383 21.91236522
   5.25487252  7.42095307 21.86714283
   3.24544340  0.00000000  7.50000000
   3.24544340  0.00000000 10.04304950
   7.76241155 10.35119076  8.77152475
   5.21936205 10.35119076  8.77152475
   6.49088680  0.00000000 10.74544340
   6.49088680  0.00000000 13.28849290
   4.51696815 10.35119076 12.01696815
   8.46480545 10.35119076 12.01696815
   3.24544340  0.00000000 13.99088680
   3.24544340  0.00000000 16.53393630
   7.76241155 10.35119076 15.26241155
   5.21936205 10.35119076 15.26241155
   6.49016303 11.82993228 17.24321261
   6.49071278  0.00000006 19.78770287
   4.54234093 10.35040582 18.52148697
   8.43966541 10.35224210 18.51783285
   3.24382037 11.82993225 20.49331590
   3.24508275  0.00000002 23.04571072
   7.71003500 10.35733141 21.92205191
   5.27110120 10.35310333 21.92152383
   3.24544340  2.95748307  7.50000000
   3.24544340  2.95748307 10.04304950
   7.76241155  1.47874154  8.77152475
   5.21936205  1.47874154  8.77152475
   6.49088680  2.95748307 10.74544340
   6.49088680  2.95748307 13.28849290
   4.51696815  1.47874154 12.01696815
   8.46480545  1.47874154 12.01696815
   3.24544340  2.95748307 13.99088680
   3.24544340  2.95748307 16.53393630
   7.76241155  1.47874154 15.26241155
   5.21936205  1.47874154 15.26241155
   6.48951530  2.96756973 17.25057421
   6.49816090  2.94694251 19.78707031
   4.54234095  1.47952649 18.52148688
   8.43966542  1.47769019 18.51783276
   3.22707525  2.95317686 20.48854980
   3.25303062  2.96329061 23.04146673
   7.71003502  1.47260086 21.92205181
   5.27110123  1.47682899 21.92152383
   3.24544340  5.91496615  7.50000000
   3.24544340  5.91496615 10.04304950
   7.76241155  4.43622461  8.77152475
   5.21936205  4.43622461  8.77152475
   6.49088680  5.91496615 10.74544340
   6.49088680  5.91496615 13.28849290
   4.51696815  4.43622461 12.01696815
   8.46480545  4.43622461 12.01696815
   3.24544340  5.91496615 13.99088680
   3.24544340  5.91496615 16.53393630
   7.76241155  4.43622461 15.26241155
   5.21936205  4.43622461 15.26241155
   6.48944610  5.91496617 17.25835410
   6.49288038  5.91496629 19.82491594
   4.54109243  4.43629000 18.53226988
   8.43969319  4.43689456 18.52693858
   3.21526357  5.91496619 20.48520865
   3.30269363  5.91496609 23.03677717
   7.70525080  4.42541850 21.91236506
   5.25487253  4.40897925 21.86714225



--------------------------------------------------------------------------------------------------------

--------------------------------------- Iteration      FINAL  ---------------------------------------


--------------------OUTCAR has been truncated-------------------------


--------------------OUTCAR has been truncated-------------------------


--------------------OUTCAR has been truncated-------------------------


--------------------OUTCAR has been truncated-------------------------


--------------------OUTCAR has been truncated-------------------------


--------------------OUTCAR has been truncated-------------------------


--------------------OUTCAR has been truncated-------------------------


--------------------OUTCAR has been truncated-------------------------


--------------------OUTCAR has been truncated-------------------------


--------------------OUTCAR has been truncated-------------------------


    FORVDW:  cpu time     54.3171: real time     54.3571

  FORCE on cell =-STRESS in cart. coord.  units (eV):
  Direction    XX          YY          ZZ          XY          YZ          ZX
  --------------------------------------------------------------------------------------
  Alpha Z  2936.35476  2936.35476  2936.35476
  Ewald  517336.85611522579.05099************    -0.00000     0.00000     3.10487
  Hartree538305.19807539688.52434************    -0.00003    -0.00006     0.16847
  E(xc)   -4637.47498 -4685.90817 -4637.91432     0.00000     0.00000    -0.06644
  Local  ************************************     0.00002    -0.00009    -3.19874
  n-local -2890.36926 -2790.94981 -2948.61841    -0.00005     0.00009     0.15685
  augment  1338.01144  1317.96022  1342.88537     0.00000     0.00000     0.00327
  Kinetic 23347.72588 22801.21209 23402.53660     0.00011     0.00025    -0.37802
  Fock    -2124.28824 -2148.91542 -2126.66558    -0.00001    -0.00000    -0.03503
  vdW       -49.55359   -49.62792   -43.16692    -0.00000    -0.00000    -0.00179
  -------------------------------------------------------------------------------------
  Total     -35.95687  -114.16990   -74.79033     0.00005     0.00020    -0.24656
  in kB     -12.28918   -39.02049   -25.56151     0.00002     0.00007    -0.08427
  external pressure =      -25.62 kB  Pullay stress =        0.00 kB


 VOLUME and BASIS-vectors are now :
 -----------------------------------------------------------------------------
  energy-cutoff  :      520.00
  volume of cell :     4687.80
      direct lattice vectors                 reciprocal lattice vectors
    12.981773603  0.000000000  0.000000000     0.077031077  0.000000000  0.000000000
     0.000000000 11.829932295  0.000000000     0.000000000  0.084531338  0.000000000
     0.000000000  0.000000000 30.524823105     0.000000000  0.000000000  0.032760223

  length of vectors
    12.981773603 11.829932295 30.524823105     0.077031077  0.084531338  0.032760223


 FORCES acting on ions:
    Electron-Ion                     Ewald-Force                    Non-Local-Force
 -----------------------------------------------------------------------------------------------
   0.378E-02 0.439E-02 0.110E+04   -.408E-02 -.450E-02 -.110E+04   -.991E-04 0.774E-04 -.121E+01
   0.273E-02 0.420E-02 0.117E+04   -.302E-02 -.415E-02 -.117E+04   -.267E-04 0.127E-04 -.179E+01
   0.164E-01 0.101E-01 0.563E+03   -.180E-01 -.100E-01 -.563E+03   -.549E-03 0.488E-04 0.176E+00
   0.105E-01 0.355E-01 0.559E+03   -.114E-01 -.348E-01 -.560E+03   -.300E-03 0.247E-03 -.167E+00
   0.143E+00 0.125E+00 -.475E+01   -.148E+00 -.127E+00 0.524E+01   -.129E-02 -.117E-02 0.185E+00
   0.722E-01 0.361E-01 -.371E+01   -.773E-01 -.328E-01 0.308E+01   -.389E-03 -.586E-04 -.821E-01
   0.467E+00 0.609E-01 -.557E+03   -.455E+00 -.601E-01 0.558E+03   0.474E-02 -.228E-02 -.532E-01
   -.226E+00 0.121E+00 -.571E+03   0.252E+00 -.103E+00 0.571E+03   0.288E-02 0.327E-02 0.865E-01
   0.906E-01 0.534E+00 -.109E+04   0.663E-01 -.503E+00 0.109E+04   0.296E-01 0.135E-01 -.620E-01
   -.142E+00 0.780E+00 -.111E+04   0.177E+00 -.816E+00 0.112E+04   0.208E-01 -.382E-02 0.711E+00
   0.103E-02 0.457E-02 0.110E+04   -.150E-02 -.450E-02 -.110E+04   -.738E-04 0.207E-04 -.121E+01
   0.250E-02 -.826E-05 0.117E+04   -.276E-02 0.221E-07 -.117E+04   -.456E-04 -.378E-04 -.179E+01
   0.127E-01 0.982E-02 0.563E+03   -.141E-01 -.976E-02 -.563E+03   -.488E-03 0.999E-04 0.176E+00
   -.862E-02 -.474E-05 0.560E+03   0.712E-02 0.149E-06 -.560E+03   -.293E-03 -.319E-04 -.167E+00
   -.806E-01 0.121E+00 -.455E+01   0.791E-01 -.119E+00 0.503E+01   -.338E-03 0.132E-02 0.185E+00
   0.407E-01 -.127E-04 -.375E+01   -.442E-01 -.434E-06 0.312E+01   -.162E-03 -.155E-05 -.820E-01
   0.224E+00 0.927E-01 -.558E+03   -.207E+00 -.929E-01 0.558E+03   0.203E-02 -.270E-02 -.530E-01
   -.378E+00 -.412E-05 -.572E+03   0.392E+00 0.901E-05 0.571E+03   0.936E-02 0.496E-05 0.976E-01
   -.271E+00 0.252E+00 -.109E+04   0.299E+00 -.238E+00 0.109E+04   0.200E-01 0.915E-02 -.674E-01
   0.228E+00 -.373E-05 -.111E+04   -.220E+00 -.626E-06 0.112E+04   0.734E-02 0.197E-04 0.724E+00
   0.105E-02 -.435E-02 0.110E+04   -.150E-02 0.450E-02 -.110E+04   -.742E-04 -.718E-04 -.121E+01
   0.270E-02 -.418E-02 0.117E+04   -.302E-02 0.415E-02 -.117E+04   -.791E-04 -.635E-04 -.179E+01
   0.127E-01 -.981E-02 0.563E+03   -.141E-01 0.976E-02 -.563E+03   -.466E-03 -.229E-04 0.176E+00
   0.105E-01 -.355E-01 0.559E+03   -.114E-01 0.348E-01 -.560E+03   -.202E-03 -.236E-03 -.167E+00
   -.806E-01 -.121E+00 -.455E+01   0.791E-01 0.119E+00 0.503E+01   -.327E-03 -.142E-02 0.185E+00
   0.722E-01 -.361E-01 -.371E+01   -.773E-01 0.328E-01 0.308E+01   -.399E-03 0.585E-04 -.821E-01
   0.224E+00 -.927E-01 -.558E+03   -.207E+00 0.929E-01 0.558E+03   0.204E-02 0.271E-02 -.530E-01
   -.226E+00 -.121E+00 -.571E+03   0.252E+00 0.103E+00 0.571E+03   0.288E-02 -.328E-02 0.865E-01
   -.271E+00 -.252E+00 -.109E+04   0.299E+00 0.238E+00 0.109E+04   0.200E-01 -.914E-02 -.674E-01
   -.142E+00 -.780E+00 -.111E+04   0.177E+00 0.816E+00 0.112E+04   0.209E-01 0.385E-02 0.711E+00
   0.381E-02 -.461E-02 0.110E+04   -.408E-02 0.450E-02 -.110E+04   -.401E-04 -.296E-04 -.121E+01
   0.289E-02 -.213E-04 0.117E+04   -.327E-02 -.227E-07 -.117E+04   -.119E-03 0.710E-04 -.179E+01
   0.164E-01 -.101E-01 0.563E+03   -.180E-01 0.100E-01 -.563E+03   -.516E-03 -.829E-04 0.176E+00
   0.299E-01 0.267E-04 0.559E+03   -.301E-01 -.155E-06 -.560E+03   -.116E-03 0.416E-04 -.166E+00
   0.143E+00 -.125E+00 -.475E+01   -.148E+00 0.127E+00 0.524E+01   -.134E-02 0.104E-02 0.185E+00
   0.879E-01 0.449E-05 -.368E+01   -.943E-01 -.233E-05 0.305E+01   -.316E-03 0.256E-05 -.834E-01
   0.467E+00 -.609E-01 -.557E+03   -.455E+00 0.601E-01 0.558E+03   0.471E-02 0.226E-02 -.532E-01
   -.592E-01 0.903E-06 -.571E+03   0.977E-01 -.178E-05 0.571E+03   0.105E-01 -.128E-06 0.776E-01
   0.906E-01 -.534E+00 -.109E+04   0.663E-01 0.503E+00 0.109E+04   0.296E-01 -.135E-01 -.619E-01
   -.169E+00 0.340E-05 -.111E+04   0.267E+00 0.131E-05 0.111E+04   -.174E-01 0.150E-04 0.695E+00
   -.389E-02 0.449E-02 0.110E+04   0.418E-02 -.412E-02 -.110E+04   0.895E-04 0.344E-04 -.121E+01
   -.263E-02 0.846E-02 0.117E+04   0.292E-02 -.817E-02 -.117E+04   0.152E-06 0.173E-03 -.179E+01
   -.141E-01 0.467E-01 0.563E+03   0.156E-01 -.403E-01 -.563E+03   0.525E-03 0.205E-02 0.176E+00
   -.127E-01 0.299E-01 0.560E+03   0.137E-01 -.290E-01 -.560E+03   0.260E-03 0.528E-03 -.168E+00
   -.233E+00 0.972E-01 -.457E+01   0.238E+00 -.951E-01 0.503E+01   0.230E-02 0.117E-02 0.178E+00
   -.704E-01 0.159E+00 -.373E+01   0.726E-01 -.188E+00 0.313E+01   0.208E-02 0.112E-01 -.823E-01
   0.835E-01 0.590E+00 -.560E+03   -.104E+00 -.413E+00 0.561E+03   -.867E-02 -.376E-01 -.487E-01
   -.449E+00 0.276E-01 -.571E+03   0.420E+00 -.170E-01 0.570E+03   0.478E-02 -.140E-02 0.942E-01
   0.241E+01 0.193E+01 -.109E+04   -.249E+01 -.214E+01 0.109E+04   -.655E-01 -.612E-01 0.283E-01
   -.971E+00 -.105E+01 -.111E+04   0.896E+00 0.132E+01 0.111E+04   0.352E-01 0.454E-01 0.769E+00
   -.116E-02 0.424E-02 0.110E+04   0.159E-02 -.410E-02 -.110E+04   0.171E-04 0.168E-03 -.121E+01
   -.235E-02 -.295E-04 0.117E+04   0.267E-02 0.296E-07 -.117E+04   0.102E-03 -.145E-04 -.179E+01
   -.107E-01 0.427E-01 0.563E+03   0.121E-01 -.396E-01 -.563E+03   0.498E-03 0.656E-03 0.178E+00
   0.657E-02 0.654E-05 0.560E+03   -.504E-02 0.679E-07 -.560E+03   0.359E-03 0.420E-04 -.168E+00
[...]
     12.97998      2.95577     21.61434         0.041855      0.006402      0.030973
      9.73633      4.43622      8.77152        -0.000274     -0.000149     -3.913763
      0.00000      5.91497      8.77152        -0.000469      0.000060      3.235529
      0.00000      4.43622     12.01697        -0.002206     -0.000153      0.580201
      9.73633      5.91497     12.01697        -0.000360      0.000073     -0.842120
      9.73633      4.43622     15.26241        -0.006234      0.003212      0.708385
      0.00000      5.91497     15.26241        -0.007494      0.000005     -0.803825
     12.98129      4.43593     18.44127         0.020578      0.000036      0.012550
      9.73641      5.91497     18.62532         0.038875     -0.000002      0.067814
      9.72812      4.43552     21.96588         0.172112     -0.051026     -0.232504
     12.96930      5.91497     21.61326         0.063520      0.000021      0.037002
      3.24544      7.39371      8.77152         0.000432      0.000419     -3.914976
      6.49089      8.87245      8.77152         0.000338      0.000495      3.236166
      6.49089      7.39371     12.01697         0.002177      0.009119      0.580836
      3.24544      8.87245     12.01697         0.001349      0.001430     -0.849110
      3.24544      7.39371     15.26241         0.007287      0.003464      0.680113
      6.49089      8.87245     15.26241         0.003901     -0.019604     -0.762729
      6.49110      7.38224     18.46298        -0.022078      0.095525     -0.104559
      3.24439      8.87341     18.61884        -0.027586      0.014410      0.133719
      3.23224      7.39892     21.94990        -0.092776     -0.200109      0.033626
      6.49341      8.87548     21.59613        -0.062725      0.248141      0.021158
      3.24544     10.35119      8.77152         0.000493      0.000347     -3.914385
      6.49089      0.00000      8.77152         0.000478     -0.000048      3.237129
      6.49089     10.35119     12.01697         0.001927      0.004136      0.587056
      3.24544      0.00000     12.01697         0.002002      0.000052     -0.847248
      3.24544     10.35119     15.26241         0.003652      0.023642      0.697772
      6.49089      0.00000     15.26241         0.001914     -0.000004     -0.865008
      6.49271     10.34619     18.42649        -0.014385      0.034996     -0.003519
      3.24693     11.82993     18.62397        -0.014338      0.000013      0.133699
      3.24929     10.35223     21.96787        -0.031612     -0.056695     -0.156916
      6.49081     11.82993     21.59785        -0.032941     -0.000007      0.034767
      3.24544      1.47874      8.77152         0.000547     -0.000319     -3.914361
      6.49089      2.95748      8.77152         0.000475     -0.000533      3.236147
      6.49089      1.47874     12.01697         0.001963     -0.004105      0.587108
      3.24544      2.95748     12.01697         0.001380     -0.001444     -0.849104
      3.24544      1.47874     15.26241         0.003663     -0.023630      0.697862
      6.49089      2.95748     15.26241         0.003879      0.019592     -0.762678
      6.49271      1.48374     18.42649        -0.014390     -0.034982     -0.003530
      3.24439      2.95652     18.61884        -0.027625     -0.014408      0.133686
      3.24929      1.47770     21.96787        -0.031628      0.056713     -0.156936
      6.49341      2.95446     21.59613        -0.062692     -0.248136      0.021158
      3.24544      4.43622      8.77152         0.000312     -0.000371     -3.914968
      6.49089      5.91497      8.77152         0.000627      0.000066      3.235703
      6.49089      4.43622     12.01697         0.002278     -0.009121      0.580779
      3.24544      5.91497     12.01697         0.000560      0.000031     -0.850590
      3.24544      4.43622     15.26241         0.007276     -0.003381      0.680130
      6.49089      5.91497     15.26241         0.006139      0.000012     -0.778712
      6.49110      4.44769     18.46298        -0.022055     -0.095527     -0.104539
      3.24215      5.91497     18.61882        -0.040920     -0.000025      0.149615
      3.23224      4.43101     21.94990        -0.092765      0.200127      0.033638
      6.47277      5.91497     21.67581        -0.102407     -0.000033     -1.213477
      9.73633      8.87245      7.50000         0.000141     -0.000132      2.459015
      9.73633      8.87245     10.04305         0.000233     -0.000026      1.871249
      1.27152      7.39371      8.77152        -2.273542     -0.000110     -0.822339
     11.71025      7.39371      8.77152         2.274390     -0.000102     -0.822355
      0.00000      8.87245     10.74544         0.000295     -0.000078     -1.392644
      0.00000      8.87245     13.28849         0.000500     -0.000145     -0.251524
     11.00785      7.39371     12.01697         0.362211     -0.000201      0.057620
      1.97392      7.39371     12.01697        -0.359774     -0.000433      0.058513
      9.73633      8.87245     13.99089         0.000685     -0.000206      0.032487
      9.73633      8.87245     16.53394         0.002137     -0.004690     -0.133431
      1.27152      7.39371     15.26241        -0.620848     -0.000508      0.100276
     11.71025      7.39371     15.26241         0.631730      0.000565      0.097059
     12.98083      8.87332     17.25152        -0.002627     -0.000644      0.117611
      0.00308      8.87166     19.80184        -0.006322      0.000348     -0.177849
     11.03594      7.39447     18.52359        -0.076536     -0.003660      0.014434
      1.94475      7.39534     18.51597         0.049455      0.000549      0.007081
      9.73725      8.87438     20.49005        -0.021514     -0.019729      0.014459
      9.73206      8.87238     23.04330        -0.015760     -0.038876     -0.049740
      1.21385      7.38931     21.94212        -0.160338      0.012746     -0.043902
     11.75954      7.39502     21.92876         0.063718     -0.001755     -0.019099
      9.73633      0.00000      7.50000         0.000173     -0.000047      2.458963
      9.73633      0.00000     10.04305         0.000315     -0.000041      1.871262
      1.27152     10.35119      8.77152        -2.273581     -0.000007     -0.822399
     11.71025     10.35119      8.77152         2.274382      0.000150     -0.822480
      0.00000      0.00000     10.74544         0.000263      0.000004     -1.392760
      0.00000      0.00000     13.28849         0.000459     -0.000018     -0.251448
     11.00785     10.35119     12.01697         0.362254     -0.000108      0.057676
      1.97392     10.35119     12.01697        -0.360110     -0.000360      0.058440
      9.73633      0.00000     13.99089         0.000167      0.000033      0.032886
      9.73633      0.00000     16.53394         0.010273      0.000072     -0.148860
      1.27152     10.35119     15.26241        -0.624452     -0.001382      0.098482
     11.71025     10.35119     15.26241         0.630476     -0.000184      0.096049
     12.98082      0.00000     17.25172        -0.002488      0.000006      0.117698
      0.00250     11.82993     19.80169        -0.004566      0.000019     -0.175843
     11.03657     10.35111     18.52443        -0.070122     -0.005497      0.013814
      1.94617     10.35331     18.52084         0.050569     -0.003164      0.007933
      9.73842     11.82993     20.49036        -0.008753      0.000011      0.000696
      9.73898      0.00000     23.04430        -0.005561     -0.000018     -0.047567
      1.21808     10.35035     21.93396        -0.139470      0.004237     -0.032345
     11.76412     10.35049     21.92804         0.087226      0.000124     -0.021024
      9.73633      2.95748      7.50000         0.000222      0.000026      2.458486
      9.73633      2.95748     10.04305         0.000198      0.000034      1.871310
      1.27152      1.47874      8.77152        -2.273532      0.000025     -0.822369
     11.71025      1.47874      8.77152         2.274294     -0.000071     -0.822394
      0.00000      2.95748     10.74544         0.000269      0.000055     -1.392567
      0.00000      2.95748     13.28849         0.000507      0.000129     -0.251608
     11.00785      1.47874     12.01697         0.362219      0.000100      0.057692
      1.97392      1.47874     12.01697        -0.360033      0.000334      0.058428
      9.73633      2.95748     13.99089         0.000679      0.000291      0.032558
      9.73633      2.95748     16.53394         0.002154      0.004791     -0.133408
      1.27152      1.47874     15.26241        -0.624440      0.001370      0.098431
     11.71025      1.47874     15.26241         0.630416      0.000227      0.096044
     12.98083      2.95661     17.25152        -0.002633      0.000637      0.117649
      0.00308      2.95828     19.80184        -0.006328     -0.000355     -0.177845
     11.03657      1.47882     18.52443        -0.070131      0.005496      0.013780
      1.94617      1.47662     18.52084         0.050607      0.003155      0.007954
      9.73725      2.95556     20.49005        -0.021526      0.019750      0.014434
      9.73206      2.95756     23.04330        -0.015757      0.038879     -0.049772
      1.21808      1.47959     21.93396        -0.139496     -0.004269     -0.032351
     11.76412      1.47944     21.92804         0.087184     -0.000166     -0.021009
      9.73633      5.91497      7.50000         0.000150      0.000193      2.458515
      9.73633      5.91497     10.04305         0.000127      0.000076      1.871482
      1.27152      4.43622      8.77152        -2.273536      0.000035     -0.822271
     11.71025      4.43622      8.77152         2.274235      0.000087     -0.822361
      0.00000      5.91497     10.74544         0.000294      0.000017     -1.392717
      0.00000      5.91497     13.28849         0.000584      0.000008     -0.251722
     11.00785      4.43622     12.01697         0.362212      0.000175      0.057648
      1.97392      4.43622     12.01697        -0.359849      0.000441      0.058540
      9.73633      5.91497     13.99089         0.001549      0.000010      0.031726
      9.73633      5.91497     16.53394        -0.000270      0.000043     -0.125749
      1.27152      4.43622     15.26241        -0.620810      0.000455      0.100259
     11.71025      4.43622     15.26241         0.631774     -0.000537      0.097071
     12.98032      5.91497     17.25121        -0.002624     -0.000004      0.117569
      0.00106      5.91497     19.80084        -0.007293     -0.000017     -0.181750
     11.03594      4.43546     18.52359        -0.076505      0.003674      0.014452
      1.94475      4.43459     18.51597         0.049500     -0.000552      0.007096
      9.74158      5.91497     20.49132        -0.023434      0.000002      0.019609
      9.72263      5.91497     23.04211        -0.037603     -0.000014     -0.031268
      1.21385      4.44062     21.94212        -0.160388     -0.012777     -0.043897
     11.75954      4.43491     21.92876         0.063716      0.001714     -0.019139
      3.24544      8.87245      7.50000        -0.000066     -0.000354      2.458990
      3.24544      8.87245     10.04305        -0.000131     -0.000246      1.873152
      7.76241      7.39371      8.77152        -2.273993     -0.000406     -0.822450
      5.21936      7.39371      8.77152         2.273322     -0.000400     -0.822388
      6.49089      8.87245     10.74544        -0.000170     -0.002026     -1.394606
      6.49089      8.87245     13.28849        -0.000671     -0.004198     -0.263674
      4.51697      7.39371     12.01697         0.359086     -0.000956      0.058438
      8.46481      7.39371     12.01697        -0.361319     -0.000691      0.057506
      3.24544      8.87245     13.99089        -0.000627     -0.005448      0.042254
      3.24544      8.87245     16.53394         0.001907     -0.006448     -0.137413
      7.76241      7.39371     15.26241        -0.628056     -0.021475      0.092788
      5.21936      7.39371     15.26241         0.614671     -0.021888      0.091800
      6.48952      8.86236     17.25057         0.002689     -0.029081      0.158176
      6.49816      8.88299     19.78707         0.001317     -0.030435     -0.123737
      4.54109      7.39364     18.53227         0.001217     -0.007307      0.011609
      8.43969      7.39304     18.52694         0.022699     -0.011193      0.021417
      3.22708      8.87676     20.48855         0.022052      0.005734     -0.056979
      3.25303      8.86664     23.04147        -0.015016      0.077291     -0.109171
      7.70525      7.40451     21.91237        -0.218595     -0.236641      0.172788
      5.25487      7.42095     21.86714         0.386476     -0.314223      0.214450
      3.24544      0.00000      7.50000        -0.000114      0.000021      2.459162
      3.24544      0.00000     10.04305        -0.000246     -0.000047      1.872185
      7.76241     10.35119      8.77152        -2.273927     -0.000146     -0.822587
      5.21936     10.35119      8.77152         2.273272     -0.000197     -0.822609
      6.49089      0.00000     10.74544        -0.000167     -0.000034     -1.396639
      6.49089      0.00000     13.28849        -0.000447     -0.000001     -0.273746
      4.51697     10.35119     12.01697         0.357165     -0.000572      0.058044
      8.46481     10.35119     12.01697        -0.359234     -0.000316      0.057367
      3.24544      0.00000     13.99089        -0.000554     -0.000035      0.039094
      3.24544      0.00000     16.53394         0.003738      0.000046     -0.154738
      7.76241     10.35119     15.26241        -0.622412     -0.008675      0.100456
      5.21936     10.35119     15.26241         0.615134     -0.009140      0.098560
      6.49016     11.82993     17.24321         0.002286     -0.000000      0.128862
      6.49071      0.00000     19.78770         0.003219      0.000005     -0.168364
      4.54234     10.35041     18.52149        -0.029747     -0.004338      0.008323
      8.43967     10.35224     18.51783         0.046376     -0.007638      0.015008
      3.24382     11.82993     20.49332         0.005857     -0.000000     -0.046948
      3.24508      0.00000     23.04571         0.002376     -0.000014     -0.047695
      7.71003     10.35733     21.92205        -0.123292     -0.045341     -0.034293
      5.27110     10.35310     21.92152         0.174296     -0.037574     -0.049515
      3.24544      2.95748      7.50000        -0.000027      0.000347      2.458946
      3.24544      2.95748     10.04305        -0.000211      0.000258      1.873140
      7.76241      1.47874      8.77152        -2.273871      0.000160     -0.822580
      5.21936      1.47874      8.77152         2.273201      0.000258     -0.822559
      6.49089      2.95748     10.74544        -0.000235      0.002061     -1.394590
      6.49089      2.95748     13.28849        -0.000682      0.004183     -0.263665
      4.51697      1.47874     12.01697         0.357157      0.000541      0.058052
      8.46481      1.47874     12.01697        -0.359313      0.000299      0.057313
      3.24544      2.95748     13.99089        -0.000634      0.005427      0.042251
      3.24544      2.95748     16.53394         0.001930      0.006393     -0.137410
      7.76241      1.47874     15.26241        -0.622420      0.008709      0.100419
      5.21936      1.47874     15.26241         0.615140      0.009109      0.098555
      6.48952      2.96757     17.25057         0.002657      0.029073      0.158166
      6.49816      2.94694     19.78707         0.001311      0.030464     -0.123755
      4.54234      1.47953     18.52149        -0.029695      0.004348      0.008301
      8.43967      1.47769     18.51783         0.046357      0.007627      0.015029
      3.22708      2.95318     20.48855         0.022072     -0.005711     -0.056967
      3.25303      2.96329     23.04147        -0.015015     -0.077273     -0.109188
      7.71004      1.47260     21.92205        -0.123348      0.045359     -0.034316
      5.27110      1.47683     21.92152         0.174258      0.037548     -0.049503
      3.24544      5.91497      7.50000        -0.000020     -0.000082      2.459523
      3.24544      5.91497     10.04305        -0.000099      0.000021      1.873688
      7.76241      4.43622      8.77152        -2.273871      0.000339     -0.822415
      5.21936      4.43622      8.77152         2.273346      0.000347     -0.822416
      6.49089      5.91497     10.74544        -0.000254     -0.000014     -1.392549
      6.49089      5.91497     13.28849        -0.000777      0.000024     -0.232363
      4.51697      4.43622     12.01697         0.359047      0.000895      0.058438
      8.46481      4.43622     12.01697        -0.361460      0.000624      0.057519
      3.24544      5.91497     13.99089        -0.001654      0.000042      0.044330
      3.24544      5.91497     16.53394         0.006089      0.000001     -0.140536
      7.76241      4.43622     15.26241        -0.628000      0.021515      0.092762
      5.21936      4.43622     15.26241         0.614722      0.021857      0.091805
      6.48945      5.91497     17.25835         0.002677      0.000006      0.185684
      6.49288      5.91497     19.82492         0.009896     -0.000015      0.269088
      4.54109      4.43629     18.53227         0.001236      0.007314      0.011616
      8.43969      4.43689     18.52694         0.022678      0.011203      0.021407
      3.21526      5.91497     20.48521         0.022406      0.000008     -0.091552
      3.30269      5.91497     23.03678        -0.102610     -0.000022     -0.336150
      7.70525      4.42542     21.91237        -0.218634      0.236645      0.172811
      5.25487      4.40898     21.86714         0.386505      0.314239      0.214425
 -----------------------------------------------------------------------------------
    total drift:                               -0.009059      0.000101     -0.060733


--------------------------------------------------------------------------------------------------------



  FREE ENERGIE OF THE ION-ELECTRON SYSTEM (eV)
  ---------------------------------------------------
  free  energy   TOTEN  =     -2617.70146339 eV

  energy  without entropy=    -2617.70146339  energy(sigma->0) =    -2617.70146339



--------------------------------------------------------------------------------------------------------


    POTLOK:  cpu time      1.1902: real time      1.1916


--------------------------------------------------------------------------------------------------------


     LOOP+:  cpu time   6805.6455: real time   6810.4921
    4ORBIT:  cpu time      0.0000: real time      0.0000

 total amount of memory used by VASP MPI-rank0   508396. kBytes
=======================================================================

   base      :      30000. kBytes
   nonl-proj :     152371. kBytes
   fftplans  :      13166. kBytes
   grid      :      11925. kBytes
   one-center:        648. kBytes
   HF        :         90. kBytes
   nonlr-proj:      61532. kBytes
   wavefun   :      18726. kBytes
   fock_wrk  :     219938. kBytes

  
  
 General timing and accounting informations for this job:
 ========================================================
  
                  Total CPU time used (sec):     6915.563
                            User time (sec):     6891.099
                          System time (sec):       24.465
                         Elapsed time (sec):     6950.633
  
                   Maximum memory used (kb):     1057444.
                   Average memory used (kb):          N/A
  
                          Minor page faults:       621840
                          Major page faults:         1224
                 Voluntary context switches:        23687
