 vasp.6.3.0 20Jan22 (build Apr  1 2022 16:44:48) complex                         
 executed on        HPECrayEX_GCC date 2022.11.06  22:34:38
 running  512 mpi-ranks, with    1 threads/rank
 distrk:  each k-point on  512 cores,    1 groups
 distr:  one band on NCORE=   8 cores,   64 groups


--------------------------------------------------------------------------------------------------------


 INCAR:
   SYSTEM = MgO-rocksalt
   ISMEAR = 0
   SIGMA = 0.05
   EDIFF = 1E-6
   ALGO = ALL
   ISTART = 0
   IBRION = -1
   NSW = 0
   ISYM = 0
   DIPOL = 0.5 0.5 0.5
   IDIPOL = 3
   LDIPOL = .TRUE.
   GGA = RE
   IVDW = 13
   VDW_S8 = 1.7468
   VDW_A1 = 0.5363
   VDW_A2 = 3.0726
   ENCUT = 600
   PREC = Accurate
   LASPH = .TRUE.
   LREAL = .FALSE.
   ISPIN = 1
   NELM = 200
   NELMIN = 8
   NCORE = 8
   KPAR = 1
   LWAVE = .FALSE.
   LCHARG = .FALSE.

 POTCAR:    PAW_PBE C 08Apr2002                   
 POTCAR:    PAW_PBE H 15Jun2001                   
 POTCAR:    PAW_PBE Mg_pv 13Apr2007               
 POTCAR:    PAW_PBE O 08Apr2002                   
 POTCAR:    PAW_PBE C 08Apr2002                   
   SHA256 =  253f7b50bb8d59471dbedb8285d89021f4a42ed1a2c5d38a03a736e69125dd95 C/POTCAR              
   COPYR  = (c) Copyright 08Apr2002 Georg Kresse                                                    
   COPYR  = This file is part of the software VASP. Any use, copying, and all other rights are regul
   COPYR  = If you do not have a valid VASP license, you may not use, copy or distribute this file. 
   VRHFIN =C: s2p2                                                                                  
   LEXCH  = PE                                                                                      
   EATOM  =   147.1560 eV,   10.8157 Ry                                                             
                                                                                                    
   TITEL  = PAW_PBE C 08Apr2002                                                                     
   LULTRA =        F    use ultrasoft PP ?                                                          
   IUNSCR =        1    unscreen: 0-lin 1-nonlin 2-no                                               
   RPACOR =    1.200    partial core radius                                                         
   POMASS =   12.011; ZVAL   =    4.000    mass and valenz                                          
   RCORE  =    1.500    outmost cutoff radius                                                       
   RWIGS  =    1.630; RWIGS  =    0.863    wigner-seitz radius (au A)                               
   ENMAX  =  400.000; ENMIN  =  300.000 eV                                                          
   ICORE  =        2    local potential                                                             
   LCOR   =        T    correct aug charges                                                         
   LPAW   =        T    paw PP                                                                      
   EAUG   =  644.873                                                                                
   DEXC   =    0.000                                                                                
   RMAX   =    1.529    core radius for proj-oper                                                   
   RAUG   =    1.300    factor for augmentation sphere                                              
   RDEP   =    1.501    radius for radial grids                                                     
   RDEPT  =    1.300    core radius for aug-charge                                                  
                                                                                                    
   Atomic configuration                                                                             
    4 entries                                                                                       
     n  l   j            E        occ.                                                              
     1  0  0.50      -273.3789   2.0000                                                             
     2  0  0.50       -13.7508   2.0000                                                             
     2  1  0.50        -5.2854   2.0000                                                             
     3  2  1.50        -5.4423   0.0000                                                             
   Description                                                                                      
     l       E           TYP  RCUT    TYP  RCUT                                                     
     0    -13.7508458     23  1.200                                                                 
     0     -8.2022199     23  1.200                                                                 
     1     -5.2854383     23  1.500                                                                 
     1     34.0145650     23  1.500                                                                 
     2     -5.4423304      7  1.500                                                                 
  local pseudopotential read in
  partial core-charges read in
  partial kinetic energy density read in
  atomic valenz-charges read in
  non local Contribution for L=           0  read in
    real space projection operators read in
  non local Contribution for L=           0  read in
    real space projection operators read in
  non local Contribution for L=           1  read in
    real space projection operators read in
  non local Contribution for L=           1  read in
    real space projection operators read in
    PAW grid and wavefunctions read in

   number of l-projection  operators is LMAX  =           4
   number of lm-projection operators is LMMAX =           8

 POTCAR:    PAW_PBE H 15Jun2001                   
   SHA256 =  030f79b5d3ab3cf0e668861823c8fb652ff669f3e15e46930bd03bfd63a607b6 H/POTCAR              
   COPYR  = (c) Copyright 15Jun2001 Georg Kresse                                                    
   COPYR  = This file is part of the software VASP. Any use, copying, and all other rights are regul
   COPYR  = If you do not have a valid VASP license, you may not use, copy or distribute this file. 
   VRHFIN =H: ultrasoft test                                                                        
   LEXCH  = PE                                                                                      
   EATOM  =    12.4884 eV,    0.9179 Ry                                                             
                                                                                                    
   TITEL  = PAW_PBE H 15Jun2001                                                                     
   LULTRA =        F    use ultrasoft PP ?                                                          
   IUNSCR =        0    unscreen: 0-lin 1-nonlin 2-no                                               
   RPACOR =    0.000    partial core radius                                                         
   POMASS =    1.000; ZVAL   =    1.000    mass and valenz                                          
   RCORE  =    1.100    outmost cutoff radius                                                       
   RWIGS  =    0.700; RWIGS  =    0.370    wigner-seitz radius (au A)                               
   ENMAX  =  250.000; ENMIN  =  200.000 eV                                                          
   RCLOC  =    0.701    cutoff for local pot                                                        
   LCOR   =        T    correct aug charges                                                         
   LPAW   =        T    paw PP                                                                      
   EAUG   =  400.000                                                                                
   RMAX   =    1.123    core radius for proj-oper                                                   
   RAUG   =    1.200    factor for augmentation sphere                                              
   RDEP   =    1.112    radius for radial grids                                                     
   RDEPT  =    0.926    core radius for aug-charge                                                  
                                                                                                    
   Atomic configuration                                                                             
    2 entries                                                                                       
     n  l   j            E        occ.                                                              
     1  0  0.50        -6.4927   1.0000                                                             
     2  1  0.50        -3.4015   0.0000                                                             
   Description                                                                                      
     l       E           TYP  RCUT    TYP  RCUT                                                     
     0     -6.4927494     23  1.100                                                                 
     0      6.8029130     23  1.100                                                                 
     1     -4.0817478     23  1.100                                                                 
  local pseudopotential read in
  atomic valenz-charges read in
  non local Contribution for L=           0  read in
    real space projection operators read in
  non local Contribution for L=           0  read in
    real space projection operators read in
  non local Contribution for L=           1  read in
    real space projection operators read in
    PAW grid and wavefunctions read in

   number of l-projection  operators is LMAX  =           3
   number of lm-projection operators is LMMAX =           5

 POTCAR:    PAW_PBE Mg_pv 13Apr2007               
   SHA256 =  f474ac0dd33840b9ae76c01d57fea79fdf77cdfbb07d5ade72c65f83c709b62b Mg_pv/POTCAR          
   COPYR  = (c) Copyright 13Apr2007 Georg Kresse                                                    
   COPYR  = This file is part of the software VASP. Any use, copying, and all other rights are regul
   COPYR  = If you do not have a valid VASP license, you may not use, copy or distribute this file. 
   VRHFIN =Mg: p6s2                                                                                 
   LEXCH  = PE                                                                                      
   EATOM  =  1056.7344 eV,   77.6678 Ry                                                             
                                                                                                    
   TITEL  = PAW_PBE Mg_pv 13Apr2007                                                                 
   LULTRA =        F    use ultrasoft PP ?                                                          
   IUNSCR =        1    unscreen: 0-lin 1-nonlin 2-no                                               
   RPACOR =    1.500    partial core radius                                                         
   POMASS =   24.305; ZVAL   =    8.000    mass and valenz                                          
   RCORE  =    2.000    outmost cutoff radius                                                       
   RWIGS  =    2.000; RWIGS  =    1.058    wigner-seitz radius (au A)                               
   ENMAX  =  403.929; ENMIN  =  302.947 eV                                                          
   RCLOC  =    1.506    cutoff for local pot                                                        
   LCOR   =        T    correct aug charges                                                         
   LPAW   =        T    paw PP                                                                      
   EAUG   =  758.780                                                                                
   DEXC   =    0.000                                                                                
   RMAX   =    2.045    core radius for proj-oper                                                   
   RAUG   =    1.300    factor for augmentation sphere                                              
   RDEP   =    2.025    radius for radial grids                                                     
   RDEPT  =    1.557    core radius for aug-charge                                                  
                                                                                                    
   Atomic configuration                                                                             
    5 entries                                                                                       
     n  l   j            E        occ.                                                              
     1  0  0.50     -1259.6230   2.0000                                                             
     2  0  0.50       -79.8442   2.0000                                                             
     2  1  1.50       -46.6121   6.0000                                                             
     3  0  0.50        -4.7055   2.0000                                                             
     3  2  1.50        -1.3606   0.0000                                                             
   Description                                                                                      
     l       E           TYP  RCUT    TYP  RCUT                                                     
     1    -46.6121073     23  1.600                                                                 
     1      2.7211652     23  1.600                                                                 
     0     -4.7054661     23  2.000                                                                 
     0     61.2262170     23  2.000                                                                 
     2     -1.3605826     23  2.000                                                                 
  local pseudopotential read in
  partial core-charges read in
  partial kinetic energy density read in
  atomic valenz-charges read in
  non local Contribution for L=           1  read in
    real space projection operators read in
  non local Contribution for L=           1  read in
    real space projection operators read in
  non local Contribution for L=           0  read in
    real space projection operators read in
  non local Contribution for L=           0  read in
    real space projection operators read in
  non local Contribution for L=           2  read in
    real space projection operators read in
    PAW grid and wavefunctions read in

   number of l-projection  operators is LMAX  =           5
   number of lm-projection operators is LMMAX =          13

 POTCAR:    PAW_PBE O 08Apr2002                   
   SHA256 =  818f92134a0a090dccd8ba1447fa70422a3b330e708bb4f08108d8ae51209ddf O/POTCAR              
   COPYR  = (c) Copyright 08Apr2002 Georg Kresse                                                    
   COPYR  = This file is part of the software VASP. Any use, copying, and all other rights are regul
   COPYR  = If you do not have a valid VASP license, you may not use, copy or distribute this file. 
   VRHFIN =O: s2p4                                                                                  
   LEXCH  = PE                                                                                      
   EATOM  =   432.3788 eV,   31.7789 Ry                                                             
                                                                                                    
   TITEL  = PAW_PBE O 08Apr2002                                                                     
   LULTRA =        F    use ultrasoft PP ?                                                          
   IUNSCR =        1    unscreen: 0-lin 1-nonlin 2-no                                               
   RPACOR =    1.200    partial core radius                                                         
   POMASS =   16.000; ZVAL   =    6.000    mass and valenz                                          
   RCORE  =    1.520    outmost cutoff radius                                                       
   RWIGS  =    1.550; RWIGS  =    0.820    wigner-seitz radius (au A)                               
   ENMAX  =  400.000; ENMIN  =  300.000 eV                                                          
   ICORE  =        2    local potential                                                             
   LCOR   =        T    correct aug charges                                                         
   LPAW   =        T    paw PP                                                                      
   EAUG   =  605.392                                                                                
   DEXC   =    0.000                                                                                
   RMAX   =    1.553    core radius for proj-oper                                                   
   RAUG   =    1.300    factor for augmentation sphere                                              
   RDEP   =    1.550    radius for radial grids                                                     
   RDEPT  =    1.329    core radius for aug-charge                                                  
                                                                                                    
   Atomic configuration                                                                             
    4 entries                                                                                       
     n  l   j            E        occ.                                                              
     1  0  0.50      -514.6923   2.0000                                                             
     2  0  0.50       -23.9615   2.0000                                                             
     2  1  0.50        -9.0305   4.0000                                                             
     3  2  1.50        -9.5241   0.0000                                                             
   Description                                                                                      
     l       E           TYP  RCUT    TYP  RCUT                                                     
     0    -23.9615318     23  1.200                                                                 
     0     -9.5240782     23  1.200                                                                 
     1     -9.0304911     23  1.520                                                                 
     1      8.1634956     23  1.520                                                                 
     2     -9.5240782      7  1.500                                                                 
  local pseudopotential read in
  partial core-charges read in
  partial kinetic energy density read in
  kinetic energy density of atom read in
  atomic valenz-charges read in
  non local Contribution for L=           0  read in
    real space projection operators read in
  non local Contribution for L=           0  read in
    real space projection operators read in
  non local Contribution for L=           1  read in
    real space projection operators read in
  non local Contribution for L=           1  read in
    real space projection operators read in
    PAW grid and wavefunctions read in

   number of l-projection  operators is LMAX  =           4
   number of lm-projection operators is LMMAX =           8

 -----------------------------------------------------------------------------
|                                                                             |
|               ----> ADVICE to this user running VASP <----                  |
|                                                                             |
|     You have a (more or less) 'large supercell' and for larger cells it     |
|     might be more efficient to use real-space projection operators.         |
|     Therefore, try LREAL= Auto in the INCAR file.                           |
|     Mind: For very accurate calculation, you might also keep the            |
|     reciprocal projection scheme (i.e. LREAL=.FALSE.).                      |
|                                                                             |
 -----------------------------------------------------------------------------

 -----------------------------------------------------------------------------
|                                                                             |
|               ----> ADVICE to this user running VASP <----                  |
|                                                                             |
|     You enforced a specific xc type in the INCAR file but a different       |
|     type was found in the POTCAR file.                                      |
|     I HOPE YOU KNOW WHAT YOU ARE DOING!                                     |
|                                                                             |
 -----------------------------------------------------------------------------

  PAW_PBE C 08Apr2002                   :
 energy of atom  1       EATOM= -147.1560
 kinetic energy error for atom=    0.0057 (will be added to EATOM!!)
  PAW_PBE H 15Jun2001                   :
 energy of atom  2       EATOM=  -12.4884
 kinetic energy error for atom=    0.0004 (will be added to EATOM!!)
  PAW_PBE Mg_pv 13Apr2007               :
 energy of atom  3       EATOM=-1056.7344
 kinetic energy error for atom=    0.0221 (will be added to EATOM!!)
  PAW_PBE O 08Apr2002                   :
 energy of atom  4       EATOM= -432.3788
 kinetic energy error for atom=    0.0168 (will be added to EATOM!!)


 POSCAR:  C  H Mg  O
  positions in direct lattice
  No initial velocities read in
 -----------------------------------------------------------------------------
|                                                                             |
|           W    W    AA    RRRRR   N    N  II  N    N   GGGG   !!!           |
|           W    W   A  A   R    R  NN   N  II  NN   N  G    G  !!!           |
|           W    W  A    A  R    R  N N  N  II  N N  N  G       !!!           |
|           W WW W  AAAAAA  RRRRR   N  N N  II  N  N N  G  GGG   !            |
|           WW  WW  A    A  R   R   N   NN  II  N   NN  G    G                |
|           W    W  A    A  R    R  N    N  II  N    N   GGGG   !!!           |
|                                                                             |
|     Specifying the vdW parameters                                           |
|     VDW_S8 = 1.747                                                          |
|     VDW_A1 = 0.536                                                          |
|     VDW_A2 = 3.073                                                          |
|     in the INCAR file will overwrite the defaults for revpbe. Please        |
|     make sure that is what you intended.                                    |
|                                                                             |
 -----------------------------------------------------------------------------

 exchange correlation table for  LEXCH =       40
   RHO(1)=    0.500       N(1)  =     2000
   RHO(2)=  100.500       N(2)  =     4000



--------------------------------------------------------------------------------------------------------


 ion  position               nearest neighbor table
   1  0.500  0.500  0.813-   3 1.10   2 1.10   4 1.10   5 1.10
   2  0.500  0.605  0.842-   1 1.10
   3  0.500  0.395  0.842-   1 1.10
   4  0.605  0.500  0.784-   1 1.10
   5  0.395  0.500  0.784-   1 1.10
   6  0.000  0.750  0.350-  38 2.14  40 2.14  41 2.14  48 2.14  57 2.14
   7  0.250  0.000  0.350-  39 2.14  40 2.14  41 2.14  49 2.14  56 2.14
   8  0.000  0.000  0.450-  40 2.14  39 2.14  38 2.14  46 2.14  55 2.14  44 2.14
   9  0.250  0.750  0.450-  41 2.14  39 2.14  38 2.14  47 2.14  54 2.14  45 2.14
  10  0.000  0.750  0.550-  52 2.14  44 2.14  45 2.14  61 2.14  38 2.15  42 2.16
  11  0.250  1.000  0.550-  60 2.14  45 2.14  53 2.14  44 2.14  39 2.15  43 2.16
  12  0.000  1.000  0.650-  44 2.13  43 2.14  59 2.14  50 2.14  42 2.14
  13  0.250  0.750  0.649-  45 2.13  42 2.14  43 2.14  51 2.14  58 2.14
  14  0.000  0.250  0.350-  46 2.14  40 2.14  48 2.14  49 2.14  65 2.14
  15  0.250  0.500  0.350-  47 2.14  41 2.14  48 2.14  49 2.14  64 2.14
  16  0.000  0.500  0.450-  48 2.14  46 2.14  47 2.14  38 2.14  63 2.14  52 2.14
  17  0.250  0.250  0.450-  49 2.14  46 2.14  47 2.14  39 2.14  62 2.14  53 2.14
  18  1.000  0.250  0.550-  52 2.14  44 2.14  53 2.14  69 2.14  46 2.15  50 2.16
  19  0.250  0.500  0.550-  68 2.14  45 2.14  53 2.14  52 2.14  47 2.15  51 2.16
  20  1.000  0.500  0.650-  52 2.13  50 2.14  42 2.14  67 2.14  51 2.14
  21  0.250  0.250  0.649-  53 2.13  50 2.14  43 2.14  51 2.14  66 2.14
  22  0.500  0.750  0.350-  54 2.14  41 2.14  56 2.14  57 2.14  64 2.14
  23  0.750  0.000  0.350-  55 2.14  40 2.14  56 2.14  57 2.14  65 2.14
  24  0.500  0.000  0.450-  56 2.14  54 2.14  55 2.14  39 2.14  62 2.14  60 2.14
  25  0.750  0.750  0.450-  57 2.14  54 2.14  55 2.14  38 2.14  63 2.14  61 2.14
  26  0.500  0.750  0.550-  61 2.14  45 2.14  68 2.14  60 2.14  54 2.15  58 2.16
  27  0.750  1.000  0.550-  60 2.14  61 2.14  69 2.14  44 2.14  55 2.15  59 2.16
  28  0.500  1.000  0.650-  60 2.13  66 2.14  58 2.14  43 2.14  59 2.14
  29  0.750  0.750  0.649-  61 2.13  42 2.14  59 2.14  67 2.14  58 2.14
  30  0.500  0.250  0.350-  62 2.14  56 2.14  49 2.14  64 2.14  65 2.14
  31  0.750  0.500  0.350-  63 2.14  57 2.14  48 2.14  64 2.14  65 2.14
  32  0.500  0.500  0.450-  64 2.14  54 2.14  62 2.14  63 2.14  47 2.14  68 2.14
  33  0.750  0.250  0.450-  65 2.14  55 2.14  62 2.14  63 2.14  46 2.14  69 2.14
  34  0.500  0.250  0.550-  69 2.14  53 2.14  68 2.14  60 2.14  62 2.15  66 2.16
  35  0.750  0.500  0.550-  68 2.14  61 2.14  69 2.14  52 2.14  63 2.15  67 2.16
  36  0.500  0.500  0.650-  68 2.13  67 2.14  51 2.14  66 2.14  58 2.14
  37  0.750  0.250  0.649-  69 2.13  50 2.14  59 2.14  67 2.14  66 2.14
  38  0.000  0.750  0.450-   6 2.14   8 2.14   9 2.14  16 2.14  25 2.14  10 2.15
  39  0.250  0.000  0.450-   7 2.14   8 2.14   9 2.14  17 2.14  24 2.14  11 2.15
  40  0.000  0.000  0.350-   8 2.14   7 2.14   6 2.14  14 2.14  23 2.14
  41  0.250  0.750  0.350-   9 2.14   7 2.14   6 2.14  15 2.14  22 2.14
  42  0.000  0.750  0.651-  20 2.14  13 2.14  29 2.14  12 2.14  10 2.16
  43  0.250  1.000  0.652-  12 2.14  21 2.14  13 2.14  28 2.14  11 2.16
  44  0.000  1.000  0.550-  12 2.13  11 2.14  27 2.14  10 2.14  18 2.14   8 2.14
  45  0.250  0.750  0.550-  13 2.13  26 2.14  19 2.14  11 2.14  10 2.14   9 2.14
  46  0.000  0.250  0.450-  14 2.14   8 2.14  16 2.14  17 2.14  33 2.14  18 2.15
  47  0.250  0.500  0.450-  15 2.14   9 2.14  16 2.14  17 2.14  32 2.14  19 2.15
  48  0.000  0.500  0.350-  16 2.14  14 2.14  15 2.14   6 2.14  31 2.14
  49  0.250  0.250  0.350-  17 2.14  14 2.14  15 2.14   7 2.14  30 2.14
  50  1.000  0.250  0.651-  20 2.14  21 2.14  37 2.14  12 2.14  18 2.16
  51  0.250  0.500  0.652-  20 2.14  36 2.14  21 2.14  13 2.14  19 2.16
  52  1.000  0.500  0.550-  20 2.13  10 2.14  18 2.14  35 2.14  19 2.14  16 2.14
  53  0.250  0.250  0.550-  21 2.13  34 2.14  19 2.14  11 2.14  18 2.14  17 2.14
  54  0.500  0.750  0.450-  22 2.14   9 2.14  24 2.14  25 2.14  32 2.14  26 2.15
  55  0.750  0.000  0.450-  23 2.14   8 2.14  24 2.14  25 2.14  33 2.14  27 2.15
  56  0.500  0.000  0.350-  24 2.14  22 2.14  23 2.14   7 2.14  30 2.14
  57  0.750  0.750  0.350-  25 2.14  22 2.14  23 2.14   6 2.14  31 2.14
  58  0.500  0.750  0.652-  28 2.14  36 2.14  29 2.14  13 2.14  26 2.16
  59  0.750  1.000  0.652-  12 2.14  29 2.14  37 2.14  28 2.14  27 2.16
  60  0.500  1.000  0.550-  28 2.13  27 2.14  11 2.14  34 2.14  26 2.14  24 2.14
  61  0.750  0.750  0.550-  29 2.13  26 2.14  35 2.14  27 2.14  10 2.14  25 2.14
  62  0.500  0.250  0.450-  30 2.14  24 2.14  17 2.14  32 2.14  33 2.14  34 2.15
  63  0.750  0.500  0.450-  31 2.14  25 2.14  16 2.14  32 2.14  33 2.14  35 2.15
  64  0.500  0.500  0.350-  32 2.14  22 2.14  30 2.14  31 2.14  15 2.14
  65  0.750  0.250  0.350-  33 2.14  23 2.14  30 2.14  31 2.14  14 2.14
  66  0.500  0.250  0.652-  28 2.14  36 2.14  37 2.14  21 2.14  34 2.16
  67  0.750  0.500  0.652-  20 2.14  36 2.14  37 2.14  29 2.14  35 2.16
  68  0.500  0.500  0.550-  36 2.13  35 2.14  19 2.14  26 2.14  34 2.14  32 2.14
  69  0.750  0.250  0.550-  37 2.13  34 2.14  35 2.14  27 2.14  18 2.14  33 2.14


IMPORTANT INFORMATION: All symmetrisations will be switched off!
NOSYMM: (Re-)initialisation of all symmetry stuff for point group C_1.


----------------------------------------------------------------------------------------

                                     Primitive cell                                     

  volume of cell :    1563.6717

  direct lattice vectors                    reciprocal lattice vectors
     8.546113626  0.000000000  0.000000000     0.117012252  0.000000000  0.000000000
     0.000000000  8.546113626  0.000000000     0.000000000  0.117012252  0.000000000
     0.000000000  0.000000000 21.409585219     0.000000000  0.000000000  0.046708051

  length of vectors
     8.546113626  8.546113626 21.409585219     0.117012252  0.117012252  0.046708051

  position of ions in fractional coordinates (direct lattice)
     0.499999992  0.499995173  0.812957077
     0.499999965  0.604786728  0.842403149
     0.499999936  0.395217980  0.842401828
     0.605043634  0.500000410  0.783604678
     0.394955776  0.500000441  0.783604753
     0.000000000  0.750000000  0.350310383
     0.250000000  0.000000000  0.350310383
     0.000000000  0.000000000  0.450103461
     0.250000000  0.750000000  0.450103461
     0.000000007  0.749980482  0.550432276
     0.250008357  0.999999967  0.550447732
     0.000000003  0.999999999  0.649617973
     0.249982409  0.750015029  0.649414934
     0.000000000  0.250000000  0.350310383
     0.250000000  0.500000000  0.350310383
     0.000000000  0.500000000  0.450103461
     0.250000000  0.250000000  0.450103461
     0.999999997  0.250019482  0.550432262
     0.250037239  0.499999992  0.550469826
     0.999999967  0.499999963  0.649654673
     0.249982376  0.249984939  0.649414905
     0.500000000  0.750000000  0.350310383
     0.750000000  0.000000000  0.350310383
     0.500000000  0.000000000  0.450103461
     0.750000000  0.750000000  0.450103461
     0.500000002  0.749987509  0.550474791
     0.749991634  0.999999961  0.550447738
     0.499999989  0.999999990  0.649718202
     0.750017586  0.750014997  0.649414946
     0.500000000  0.250000000  0.350310383
     0.750000000  0.500000000  0.350310383
     0.500000000  0.500000000  0.450103461
     0.750000000  0.250000000  0.450103461
     0.500000001  0.250012460  0.550474776
     0.749962768  0.500000003  0.550469829
     0.500000003  0.499999971  0.649766482
     0.750017607  0.249984948  0.649414911
     0.000000000  0.750000000  0.450103461
     0.250000000  0.000000000  0.450103461
     0.000000000  0.000000000  0.350310383
     0.250000000  0.750000000  0.350310383
     0.000000013  0.749988030  0.651497110
     0.249925099  0.999999986  0.651512329
     0.000000012  0.999999968  0.550128539
     0.250035447  0.749992776  0.550136681
     0.000000000  0.250000000  0.450103461
     0.250000000  0.500000000  0.450103461
     0.000000000  0.500000000  0.350310383
     0.250000000  0.250000000  0.350310383
     0.999999995  0.250011948  0.651497070
     0.249995063  0.499999960  0.651552416
     0.999999993  0.499999998  0.550147130
     0.250035440  0.250007185  0.550136668
     0.500000000  0.750000000  0.450103461
     0.750000000  0.000000000  0.450103461
     0.500000000  0.000000000  0.350310383
     0.750000000  0.750000000  0.350310383
     0.500000004  0.750030262  0.651595830
     0.750074884  0.999999972  0.651512336
     0.500000004  0.999999985  0.550212568
     0.749964548  0.749992777  0.550136690
     0.500000000  0.250000000  0.450103461
     0.750000000  0.500000000  0.450103461
     0.500000000  0.500000000  0.350310383
     0.750000000  0.250000000  0.350310383
     0.500000005  0.249969713  0.651595801
     0.750004912  0.499999971  0.651552414
     0.500000011  0.499999996  0.550229818
     0.749964553  0.250007186  0.550136668

  ion indices of the primitive-cell ions
   primitive index   ion index
                 1           1
                 2           2
                 3           3
                 4           4
                 5           5
                 6           6
                 7           7
                 8           8
                 9           9
                10          10
                11          11
                12          12
                13          13
                14          14
                15          15
                16          16
                17          17
                18          18
                19          19
                20          20
                21          21
                22          22
                23          23
                24          24
                25          25
                26          26
                27          27
                28          28
                29          29
                30          30
                31          31
                32          32
                33          33
                34          34
                35          35
                36          36
                37          37
                38          38
                39          39
                40          40
                41          41
                42          42
                43          43
                44          44
                45          45
                46          46
                47          47
                48          48
                49          49
                50          50
                51          51
                52          52
                53          53
                54          54
                55          55
                56          56
                57          57
                58          58
                59          59
                60          60
                61          61
                62          62
                63          63
                64          64
                65          65
                66          66
                67          67
                68          68
                69          69

----------------------------------------------------------------------------------------



 KPOINTS: pymatgen v2020.8.13 with grid density = 

Automatic generation of k-mesh.
 Grid dimensions read from file:
 generate k-points for:    2    2    1

 Generating k-lattice:

  Cartesian coordinates                     Fractional coordinates (reciprocal lattice)
     0.058506126  0.000000000  0.000000000     0.500000000  0.000000000  0.000000000
     0.000000000  0.058506126  0.000000000     0.000000000  0.500000000  0.000000000
     0.000000000  0.000000000  0.046708051     0.000000000  0.000000000  1.000000000

  Length of vectors
     0.058506126  0.058506126  0.046708051

  Shift w.r.t. Gamma in fractional coordinates (k-lattice)
     0.000000000  0.000000000  0.000000000

 
 Subroutine IBZKPT returns following result:
 ===========================================
 
 Found      4 irreducible k-points:
 
 Following reciprocal coordinates:
            Coordinates               Weight
  0.000000  0.000000  0.000000      1.000000
  0.500000  0.000000  0.000000      1.000000
  0.000000  0.500000  0.000000      1.000000
  0.500000  0.500000  0.000000      1.000000
 
 Following cartesian coordinates:
            Coordinates               Weight
  0.000000  0.000000  0.000000      1.000000
  0.058506  0.000000  0.000000      1.000000
  0.000000  0.058506  0.000000      1.000000
  0.058506  0.058506  0.000000      1.000000
 


--------------------------------------------------------------------------------------------------------




 Dimension of arrays:
   k-points           NKPTS =      4   k-points in BZ     NKDIM =      4   number of bands    NBANDS=    320
   number of dos      NEDOS =    301   number of ions     NIONS =     69
   non local maximal  LDIM  =      5   non local SUM 2l+1 LMDIM =     13
   total plane-waves  NPLWV = 882000
   max r-space proj   IRMAX =      1   max aug-charges    IRDMAX=  11315
   dimension x,y,z NGX =    70 NGY =   70 NGZ =  180
   dimension x,y,z NGXF=   140 NGYF=  140 NGZF=  360
   support grid    NGXF=   140 NGYF=  140 NGZF=  360
   ions per type =               1   4  32  32
   NGX,Y,Z   is equivalent  to a cutoff of  13.62, 13.62, 13.98 a.u.
   NGXF,Y,Z  is equivalent  to a cutoff of  27.23, 27.23, 27.95 a.u.

 SYSTEM =  MgO-rocksalt                            
 POSCAR =   C  H Mg  O                             

--------------------------------------------------------------------------------------------------------


  energy-cutoff  :      600.00
  volume of cell :     1563.67
      direct lattice vectors                 reciprocal lattice vectors
     8.546113626  0.000000000  0.000000000     0.117012252  0.000000000  0.000000000
     0.000000000  8.546113626  0.000000000     0.000000000  0.117012252  0.000000000
     0.000000000  0.000000000 21.409585219     0.000000000  0.000000000  0.046708051

  length of vectors
     8.546113626  8.546113626 21.409585219     0.117012252  0.117012252  0.046708051



 k-points in units of 2pi/SCALE and weight: pymatgen v2020.8.13 with grid density = 
   0.00000000  0.00000000  0.00000000       0.250
   0.05850613  0.00000000  0.00000000       0.250
   0.00000000  0.05850613  0.00000000       0.250
   0.05850613  0.05850613  0.00000000       0.250

 k-points in reciprocal lattice and weights: pymatgen v2020.8.13 with grid density = 
   0.00000000  0.00000000  0.00000000       0.250
   0.50000000  0.00000000  0.00000000       0.250
   0.00000000  0.50000000  0.00000000       0.250
   0.50000000  0.50000000  0.00000000       0.250

 position of ions in fractional coordinates (direct lattice) 
   0.49999999  0.49999517  0.81295708
   0.49999996  0.60478673  0.84240315
   0.49999994  0.39521798  0.84240183
   0.60504363  0.50000041  0.78360468
   0.39495578  0.50000044  0.78360475
   0.00000000  0.75000000  0.35031038
   0.25000000  0.00000000  0.35031038
   0.00000000  0.00000000  0.45010346
   0.25000000  0.75000000  0.45010346
   0.00000001  0.74998048  0.55043228
   0.25000836  0.99999997  0.55044773
   0.00000000  1.00000000  0.64961797
   0.24998241  0.75001503  0.64941493
   0.00000000  0.25000000  0.35031038
   0.25000000  0.50000000  0.35031038
   0.00000000  0.50000000  0.45010346
   0.25000000  0.25000000  0.45010346
   1.00000000  0.25001948  0.55043226
   0.25003724  0.49999999  0.55046983
   0.99999997  0.49999996  0.64965467
   0.24998238  0.24998494  0.64941491
   0.50000000  0.75000000  0.35031038
   0.75000000  0.00000000  0.35031038
   0.50000000  0.00000000  0.45010346
   0.75000000  0.75000000  0.45010346
   0.50000000  0.74998751  0.55047479
   0.74999163  0.99999996  0.55044774
   0.49999999  0.99999999  0.64971820
   0.75001759  0.75001500  0.64941495
   0.50000000  0.25000000  0.35031038
   0.75000000  0.50000000  0.35031038
   0.50000000  0.50000000  0.45010346
   0.75000000  0.25000000  0.45010346
   0.50000000  0.25001246  0.55047478
   0.74996277  0.50000000  0.55046983
   0.50000000  0.49999997  0.64976648
   0.75001761  0.24998495  0.64941491
   0.00000000  0.75000000  0.45010346
   0.25000000  0.00000000  0.45010346
   0.00000000  0.00000000  0.35031038
   0.25000000  0.75000000  0.35031038
   0.00000001  0.74998803  0.65149711
   0.24992510  0.99999999  0.65151233
   0.00000001  0.99999997  0.55012854
   0.25003545  0.74999278  0.55013668
   0.00000000  0.25000000  0.45010346
   0.25000000  0.50000000  0.45010346
   0.00000000  0.50000000  0.35031038
   0.25000000  0.25000000  0.35031038
   0.99999999  0.25001195  0.65149707
   0.24999506  0.49999996  0.65155242
   0.99999999  0.50000000  0.55014713
   0.25003544  0.25000718  0.55013667
   0.50000000  0.75000000  0.45010346
   0.75000000  0.00000000  0.45010346
   0.50000000  0.00000000  0.35031038
   0.75000000  0.75000000  0.35031038
   0.50000000  0.75003026  0.65159583
   0.75007488  0.99999997  0.65151234
   0.50000000  0.99999998  0.55021257
   0.74996455  0.74999278  0.55013669
   0.50000000  0.25000000  0.45010346
   0.75000000  0.50000000  0.45010346
   0.50000000  0.50000000  0.35031038
   0.75000000  0.25000000  0.35031038
   0.50000001  0.24996971  0.65159580
   0.75000491  0.49999997  0.65155241
   0.50000001  0.50000000  0.55022982
   0.74996455  0.25000719  0.55013667

 position of ions in cartesian coordinates  (Angst):
   4.27305675  4.27301556 17.40507382
   4.27305651  5.16857610 18.03550200
   4.27305627  3.37757776 18.03547372
   5.17077164  4.27306032 16.77665113
   3.37533694  4.27306059 16.77665275
   0.00000000  6.40958522  7.50000000
   2.13652841  0.00000000  7.50000000
   0.00000000  0.00000000  9.63652841
   2.13652841  6.40958522  9.63652841
   0.00000006  6.40941842 11.78452671
   2.13659983  8.54611334 11.78485762
   0.00000002  8.54611362 13.90805135
   2.13637807  6.40971366 13.90370437
   0.00000000  2.13652841  7.50000000
   2.13652841  4.27305681  7.50000000
   0.00000000  4.27305681  9.63652841
   2.13652841  2.13652841  9.63652841
   8.54611360  2.13669490 11.78452641
   2.13684666  4.27305674 11.78533064
   8.54611334  4.27305649 13.90883708
   2.13637779  2.13639969 13.90370376
   4.27305681  6.40958522  7.50000000
   6.40958522  0.00000000  7.50000000
   4.27305681  0.00000000  9.63652841
   6.40958522  6.40958522  9.63652841
   4.27305683  6.40947847 11.78543695
   6.40951372  8.54611330 11.78485775
   4.27305672  8.54611354 13.91019722
   6.40973551  6.40971338 13.90370463
   4.27305681  2.13652841  7.50000000
   6.40958522  4.27305681  7.50000000
   4.27305681  4.27305681  9.63652841
   6.40958522  2.13652841  9.63652841
   4.27305682  2.13663489 11.78543662
   6.40926703  4.27305684 11.78533071
   4.27305684  4.27305657 13.91123086
   6.40973569  2.13639977 13.90370387
   0.00000000  6.40958522  9.63652841
   2.13652841  0.00000000  9.63652841
   0.00000000  0.00000000  7.50000000
   2.13652841  6.40958522  7.50000000
   0.00000011  6.40948293 13.94828290
   2.13588829  8.54611351 13.94860872
   0.00000010  8.54611335 11.77802383
   2.13683134  6.40952349 11.77819816
   0.00000000  2.13652841  9.63652841
   2.13652841  4.27305681  9.63652841
   0.00000000  4.27305681  7.50000000
   2.13652841  2.13652841  7.50000000
   8.54611358  2.13663052 13.94828203
   2.13648621  4.27305647 13.94946698
   8.54611356  4.27305679 11.77842186
   2.13683128  2.13658981 11.77819787
   4.27305681  6.40958522  9.63652841
   6.40958522  0.00000000  9.63652841
   4.27305681  0.00000000  7.50000000
   6.40958522  6.40958522  7.50000000
   4.27305685  6.40984384 13.95039644
   6.41022519  8.54611339 13.94860888
   4.27305684  8.54611349 11.77982286
   6.40928225  6.40952349 11.77819835
   4.27305681  2.13652841  9.63652841
   6.40958522  4.27305681  9.63652841
   4.27305681  4.27305681  7.50000000
   6.40958522  2.13652841  7.50000000
   4.27305686  2.13626957 13.95039583
   6.40962719  4.27305656 13.94946693
   4.27305691  4.27305678 11.78019217
   6.40928228  2.13658982 11.77819788



--------------------------------------------------------------------------------------------------------

--------------------------------------- Iteration      FINAL  ---------------------------------------


--------------------OUTCAR has been truncated-------------------------


--------------------OUTCAR has been truncated-------------------------


--------------------OUTCAR has been truncated-------------------------


--------------------OUTCAR has been truncated-------------------------


--------------------OUTCAR has been truncated-------------------------


--------------------OUTCAR has been truncated-------------------------


--------------------OUTCAR has been truncated-------------------------


--------------------OUTCAR has been truncated-------------------------


--------------------OUTCAR has been truncated-------------------------


--------------------OUTCAR has been truncated-------------------------



  FORCE on cell =-STRESS in cart. coord.  units (eV):
  Direction    XX          YY          ZZ          XY          YZ          ZX
  --------------------------------------------------------------------------------------
  Alpha Z   874.73537   874.73537   874.73537
  Ewald  153019.09612153018.22624************     0.00000    -0.00595    -0.00020
  Hartree163303.54533163303.14369************     0.00000    -0.00021    -0.00004
  E(xc)   -2488.66733 -2488.68180 -2496.54803     0.00000     0.00000    -0.00000
  Local  ************************325902.99262    -0.00000     0.00406     0.00018
  n-local -2812.86590 -2812.85859 -2832.85926     0.00000     0.00018     0.00000
  augment  1047.05822  1047.05932  1037.96449     0.00000     0.00002     0.00000
  Kinetic  7389.57193  7389.60320  7433.44375    -0.00000     0.00020     0.00001
  Fock        0.00000     0.00000     0.00000     0.00000     0.00000     0.00000
  vdW       -20.47073   -20.48020   -15.92125    -0.00000    -0.00000     0.00000
  -------------------------------------------------------------------------------------
  Total     -46.47059   -46.45880   -15.72938    -0.00000    -0.00170    -0.00004
  in kB     -47.61493   -47.60285   -16.11672    -0.00000    -0.00175    -0.00004
  external pressure =      -37.11 kB  Pullay stress =        0.00 kB


 VOLUME and BASIS-vectors are now :
 -----------------------------------------------------------------------------
  energy-cutoff  :      600.00
  volume of cell :     1563.67
      direct lattice vectors                 reciprocal lattice vectors
     8.546113626  0.000000000  0.000000000     0.117012252  0.000000000  0.000000000
     0.000000000  8.546113626  0.000000000     0.000000000  0.117012252  0.000000000
     0.000000000  0.000000000 21.409585219     0.000000000  0.000000000  0.046708051

  length of vectors
     8.546113626  8.546113626 21.409585219     0.117012252  0.117012252  0.046708051


 FORCES acting on ions:
    Electron-Ion                     Ewald-Force                    Non-Local-Force
 -----------------------------------------------------------------------------------------------
   0.563E-04 -.195E-02 -.832E+03   -.941E-04 0.330E-02 0.832E+03   -.505E-04 0.197E-02 0.692E-02
   0.480E-05 -.430E+02 -.207E+03   -.331E-05 0.475E+02 0.210E+03   0.246E-05 -.452E+01 -.318E+01
   0.168E-04 0.430E+02 -.207E+03   -.163E-04 -.475E+02 0.210E+03   0.375E-05 0.452E+01 -.318E+01
   -.431E+02 -.186E-02 -.209E+03   0.477E+02 0.200E-02 0.206E+03   -.456E+01 -.271E-03 0.314E+01
   0.431E+02 -.188E-02 -.209E+03   -.477E+02 0.201E-02 0.206E+03   0.456E+01 -.272E-03 0.314E+01
   0.660E-05 -.127E+00 0.201E+04   -.218E-05 0.127E+00 -.201E+04   -.420E-05 0.935E-04 -.709E+01
   0.107E+00 0.746E-05 0.201E+04   -.107E+00 -.640E-05 -.201E+04   -.289E-03 0.393E-05 -.709E+01
   0.235E-04 0.231E-04 0.685E+03   -.199E-04 -.243E-04 -.686E+03   -.608E-05 0.838E-05 0.488E+00
   0.430E+00 -.509E+00 0.686E+03   -.426E+00 0.507E+00 -.687E+03   -.330E-02 0.999E-03 0.498E+00
   0.403E-04 -.195E+01 -.634E+03   -.347E-04 0.194E+01 0.634E+03   0.214E-05 0.555E-02 -.319E+00
   0.174E+01 0.324E-04 -.634E+03   -.172E+01 -.304E-04 0.634E+03   -.133E-01 -.684E-05 -.335E+00
   0.603E-04 0.101E-03 -.196E+04   -.571E-04 -.105E-03 0.195E+04   -.637E-05 0.682E-05 0.628E+01
   0.113E+02 -.119E+02 -.194E+04   -.112E+02 0.119E+02 0.194E+04   -.264E-01 -.259E-01 0.629E+01
   0.648E-05 0.127E+00 0.201E+04   -.159E-05 -.127E+00 -.201E+04   0.533E-05 -.934E-04 -.709E+01
   0.127E+00 -.675E-05 0.201E+04   -.126E+00 0.644E-05 -.201E+04   -.455E-03 0.779E-05 -.709E+01
   0.666E-05 -.262E-04 0.686E+03   -.275E-06 0.262E-04 -.686E+03   -.582E-05 0.492E-05 0.493E+00
   0.430E+00 0.509E+00 0.686E+03   -.426E+00 -.507E+00 -.687E+03   -.330E-02 -.992E-03 0.498E+00
   0.173E-04 0.195E+01 -.634E+03   -.153E-04 -.194E+01 0.634E+03   0.351E-05 -.557E-02 -.319E+00
   0.310E+01 -.432E-04 -.629E+03   -.309E+01 0.435E-04 0.629E+03   -.107E-01 0.122E-05 -.323E+00
   -.753E-04 -.166E-03 -.195E+04   0.813E-04 0.165E-03 0.194E+04   -.268E-05 0.865E-05 0.631E+01
   0.113E+02 0.119E+02 -.194E+04   -.112E+02 -.119E+02 0.194E+04   -.265E-01 0.258E-01 0.629E+01
   -.639E-05 -.146E+00 0.201E+04   0.188E-05 0.146E+00 -.201E+04   -.609E-05 0.221E-03 -.709E+01
   -.107E+00 0.480E-05 0.201E+04   0.107E+00 -.694E-05 -.201E+04   0.290E-03 -.417E-05 -.709E+01
   -.139E-04 0.300E-04 0.686E+03   0.844E-05 -.297E-04 -.686E+03   0.438E-05 0.319E-06 0.502E+00
   -.430E+00 -.509E+00 0.686E+03   0.426E+00 0.507E+00 -.687E+03   0.330E-02 0.995E-03 0.498E+00
   0.166E-04 -.323E+01 -.629E+03   -.162E-04 0.324E+01 0.630E+03   0.156E-05 -.683E-02 -.364E+00
   -.174E+01 0.234E-04 -.634E+03   0.172E+01 -.233E-04 0.634E+03   0.133E-01 -.150E-06 -.335E+00
   -.609E-05 0.174E-03 -.195E+04   0.747E-05 -.161E-03 0.194E+04   -.636E-06 -.757E-05 0.630E+01
   -.113E+02 -.119E+02 -.194E+04   0.112E+02 0.119E+02 0.194E+04   0.265E-01 -.259E-01 0.629E+01
   -.584E-05 0.146E+00 0.201E+04   0.140E-05 -.146E+00 -.201E+04   -.106E-05 -.225E-03 -.709E+01
   -.127E+00 -.710E-05 0.201E+04   0.126E+00 0.692E-05 -.201E+04   0.457E-03 -.831E-05 -.709E+01
   -.394E-05 -.290E-04 0.687E+03   -.523E-06 0.276E-04 -.687E+03   -.459E-05 -.575E-06 0.514E+00
   -.430E+00 0.509E+00 0.686E+03   0.426E+00 -.507E+00 -.687E+03   0.330E-02 -.992E-03 0.498E+00
   0.121E-04 0.323E+01 -.629E+03   -.132E-04 -.324E+01 0.630E+03   -.947E-05 0.683E-02 -.364E+00
   -.310E+01 -.168E-04 -.629E+03   0.309E+01 0.199E-04 0.629E+03   0.107E-01 -.438E-05 -.323E+00
   0.809E-04 -.337E-03 -.191E+04   -.843E-04 0.314E-03 0.190E+04   -.223E-05 0.174E-04 0.625E+01
   -.113E+02 0.119E+02 -.194E+04   0.112E+02 -.119E+02 0.194E+04   0.265E-01 0.259E-01 0.629E+01
   0.187E-04 -.330E+00 0.514E+03   -.108E-04 0.331E+00 -.514E+03   -.832E-06 -.976E-03 -.890E-01
   0.252E+00 0.142E-04 0.514E+03   -.253E+00 -.138E-04 -.514E+03   0.814E-03 -.123E-05 -.937E-01
   0.780E-06 0.592E-05 0.151E+04   -.198E-05 -.499E-05 -.152E+04   0.134E-05 -.956E-06 0.343E+01
   0.883E-01 -.102E+00 0.151E+04   -.876E-01 0.102E+00 -.152E+04   -.876E-03 0.262E-03 0.343E+01
   0.174E-04 -.528E+01 -.148E+04   -.178E-04 0.530E+01 0.149E+04   0.738E-06 -.170E-01 -.482E+01
   0.485E+01 0.876E-04 -.148E+04   -.482E+01 -.884E-04 0.149E+04   -.319E-01 -.132E-05 -.483E+01
   0.521E-04 0.235E-04 -.471E+03   -.558E-04 -.237E-04 0.471E+03   0.129E-05 -.104E-05 0.288E+00
   0.182E+01 -.191E+01 -.468E+03   -.181E+01 0.191E+01 0.467E+03   -.133E-01 -.529E-02 0.342E+00
   0.548E-05 0.330E+00 0.514E+03   -.489E-05 -.331E+00 -.514E+03   -.786E-07 0.976E-03 -.890E-01
   0.369E+00 -.238E-04 0.514E+03   -.371E+00 0.197E-04 -.514E+03   0.352E-02 -.546E-07 -.968E-01
   -.604E-05 -.624E-05 0.151E+04   -.842E-06 0.498E-05 -.152E+04   0.432E-05 0.563E-06 0.343E+01
   0.883E-01 0.102E+00 0.151E+04   -.876E-01 -.102E+00 -.152E+04   -.872E-03 -.261E-03 0.343E+01
   0.342E-05 0.528E+01 -.148E+04   -.438E-05 -.530E+01 0.149E+04   -.682E-06 0.170E-01 -.482E+01
   0.142E+02 -.187E-03 -.146E+04   -.141E+02 0.178E-03 0.147E+04   -.658E-01 0.748E-05 -.482E+01
   -.328E-04 -.285E-04 -.469E+03   0.373E-04 0.247E-04 0.469E+03   -.159E-05 0.262E-05 0.285E+00
   0.182E+01 0.191E+01 -.468E+03   -.181E+01 -.191E+01 0.467E+03   -.133E-01 0.530E-02 0.342E+00
   -.984E-05 -.439E+00 0.514E+03   0.469E-05 0.441E+00 -.514E+03   -.129E-05 -.264E-02 -.100E+00
   -.252E+00 0.172E-04 0.514E+03   0.253E+00 -.162E-04 -.514E+03   -.815E-03 -.325E-05 -.937E-01
   0.552E-07 0.109E-05 0.151E+04   0.168E-05 -.519E-05 -.152E+04   -.180E-05 0.991E-06 0.343E+01
   -.883E-01 -.102E+00 0.151E+04   0.876E-01 0.102E+00 -.152E+04   0.874E-03 0.265E-03 0.343E+01
   0.296E-04 -.142E+02 -.147E+04   -.335E-04 0.142E+02 0.147E+04   0.298E-06 0.452E-01 -.495E+01
   -.485E+01 0.851E-04 -.148E+04   0.482E+01 -.850E-04 0.149E+04   0.319E-01 0.359E-06 -.483E+01
   0.334E-05 0.463E-04 -.470E+03   -.393E-05 -.393E-04 0.469E+03   0.102E-06 -.465E-05 0.243E+00
   -.182E+01 -.191E+01 -.468E+03   0.181E+01 0.191E+01 0.467E+03   0.133E-01 -.530E-02 0.342E+00
   -.594E-05 0.439E+00 0.514E+03   0.236E-05 -.441E+00 -.514E+03   0.774E-06 0.264E-02 -.100E+00
   -.369E+00 -.134E-04 0.514E+03   0.371E+00 0.202E-04 -.514E+03   -.352E-02 -.627E-07 -.968E-01
   0.627E-05 -.815E-06 0.151E+04   0.774E-06 0.511E-05 -.152E+04   -.285E-05 -.189E-05 0.343E+01
   -.883E-01 0.102E+00 0.151E+04   0.876E-01 -.102E+00 -.152E+04   0.876E-03 -.265E-03 0.343E+01
   0.387E-04 0.142E+02 -.147E+04   -.361E-04 -.142E+02 0.147E+04   -.581E-06 -.452E-01 -.495E+01
   -.142E+02 -.133E-03 -.146E+04   0.141E+02 0.122E-03 0.147E+04   0.658E-01 0.113E-04 -.482E+01
   0.327E-04 -.291E-04 -.465E+03   -.295E-04 0.241E-04 0.464E+03   -.219E-05 0.402E-05 0.249E+00
   -.182E+01 0.191E+01 -.468E+03   0.181E+01 -.191E+01 0.467E+03   0.133E-01 0.530E-02 0.342E+00
 -----------------------------------------------------------------------------------------------
   0.466E-04 -.273E-02 0.149E+02   -.295E-12 -.114E-12 -.182E-11   -.638E-04 0.273E-02 -.149E+02


 POSITION                                       TOTAL-FORCE (eV/Angst)
 -----------------------------------------------------------------------------------
      4.27306      4.27302     17.40507        -0.000087      0.003301     -0.021861
      4.27306      5.16858     18.03550         0.000004      0.046622      0.031107
      4.27306      3.37758     18.03547         0.000005     -0.049641      0.033031
      5.17077      4.27306     16.77665         0.055614     -0.000140     -0.058142
      3.37534      4.27306     16.77665        -0.055533     -0.000140     -0.058092
      0.00000      6.40959      7.50000         0.000000     -0.000024      0.502462
      2.13653      0.00000      7.50000         0.000111      0.000005      0.502691
      0.00000      0.00000      9.63653        -0.000002      0.000007      0.053563
      2.13653      6.40959      9.63653         0.001286     -0.000349      0.052942
      0.00000      6.40942     11.78453         0.000008      0.000205     -0.036287
      2.13660      8.54611     11.78486         0.004555     -0.000005     -0.033652
      0.00000      8.54611     13.90805        -0.000003      0.000003     -0.175606
      2.13638      6.40971     13.90370         0.015316      0.002608     -0.146418
      0.00000      2.13653      7.50000         0.000011      0.000027      0.502458
      2.13653      4.27306      7.50000         0.000116      0.000008      0.502749
      0.00000      4.27306      9.63653         0.000001      0.000005      0.054568
      2.13653      2.13653      9.63653         0.001287      0.000356      0.052941
      8.54611      2.13669     11.78453         0.000006     -0.000213     -0.036283
      2.13685      4.27306     11.78533         0.000738      0.000002     -0.036640
      8.54611      4.27306     13.90884         0.000004      0.000008     -0.188996
      2.13638      2.13640     13.90370         0.015321     -0.002607     -0.146422
      4.27306      6.40959      7.50000        -0.000010     -0.000060      0.502964
      6.40959      0.00000      7.50000        -0.000112     -0.000006      0.502703
      4.27306      0.00000      9.63653        -0.000001      0.000001      0.058980
      6.40959      6.40959      9.63653        -0.001286     -0.000354      0.052954
      4.27306      6.40948     11.78544         0.000002      0.003141     -0.025000
      6.40951      8.54611     11.78486        -0.004551     -0.000000     -0.033656
      4.27306      8.54611     13.91020         0.000001      0.000005     -0.180599
      6.40974      6.40971     13.90370        -0.015312      0.002611     -0.146418
      4.27306      2.13653      7.50000        -0.000005      0.000057      0.502971
      6.40959      4.27306      7.50000        -0.000115     -0.000008      0.502750
      4.27306      4.27306      9.63653        -0.000009     -0.000002      0.057640
      6.40959      2.13653      9.63653        -0.001283      0.000354      0.052953
      4.27306      2.13663     11.78544        -0.000010     -0.003146     -0.024992
      6.40927      4.27306     11.78533        -0.000733     -0.000001     -0.036643
      4.27306      4.27306     13.91123        -0.000005     -0.000006     -0.123489
      6.40974      2.13640     13.90370        -0.015326     -0.002613     -0.146411
      0.00000      6.40959      9.63653         0.000007     -0.000257      0.058686
      2.13653      0.00000      9.63653         0.000398     -0.000001      0.058866
      0.00000      0.00000      7.50000         0.000000      0.000000     -0.348028
      2.13653      6.40959      7.50000        -0.000270      0.000097     -0.348151
      0.00000      6.40948     13.94828         0.000001     -0.004186     -0.050628
      2.13589      8.54611     13.94861        -0.004045     -0.000002     -0.054615
      0.00000      8.54611     11.77802        -0.000002     -0.000001     -0.005070
      2.13683      6.40952     11.77820        -0.005785     -0.001307     -0.011188
      0.00000      2.13653      9.63653         0.000001      0.000257      0.058687
      2.13653      4.27306      9.63653         0.000994     -0.000004      0.060095
      0.00000      4.27306      7.50000        -0.000002     -0.000001     -0.348009
      2.13653      2.13653      7.50000        -0.000262     -0.000095     -0.348153
      8.54611      2.13663     13.94828        -0.000001      0.004186     -0.050624
      2.13649      4.27306     13.94947        -0.014294     -0.000002     -0.046154
      8.54611      4.27306     11.77842         0.000003     -0.000001     -0.005623
      2.13683      2.13659     11.77820        -0.005781      0.001305     -0.011184
      4.27306      6.40959      9.63653        -0.000006     -0.000729      0.059615
      6.40959      0.00000      9.63653        -0.000396     -0.000002      0.058865
      4.27306      0.00000      7.50000         0.000000     -0.000003     -0.348312
      6.40959      6.40959      7.50000         0.000263      0.000090     -0.348143
      4.27306      6.40984     13.95040        -0.000003      0.003760     -0.078783
      6.41023      8.54611     13.94861         0.004045      0.000000     -0.054616
      4.27306      8.54611     11.77982        -0.000000      0.000002     -0.022497
      6.40928      6.40952     11.77820         0.005786     -0.001308     -0.011189
      4.27306      2.13653      9.63653        -0.000003      0.000730      0.059611
      6.40959      4.27306      9.63653        -0.000999      0.000007      0.060097
      4.27306      4.27306      7.50000         0.000004      0.000002     -0.348320
      6.40959      2.13653      7.50000         0.000269     -0.000094     -0.348143
      4.27306      2.13627     13.95040         0.000002     -0.003763     -0.078787
      6.40963      4.27306     13.94947         0.014295      0.000001     -0.046148
      4.27306      4.27306     11.78019         0.000001     -0.000001     -0.017788
      6.40928      2.13659     11.77820         0.005781      0.001310     -0.011187
 -----------------------------------------------------------------------------------
    total drift:                               -0.000017     -0.000003      0.006058


--------------------------------------------------------------------------------------------------------



  FREE ENERGIE OF THE ION-ELECTRON SYSTEM (eV)
  ---------------------------------------------------
  free  energy   TOTEN  =      -394.75686394 eV

  energy  without entropy=     -394.75686394  energy(sigma->0) =     -394.75686394



--------------------------------------------------------------------------------------------------------


    POTLOK:  cpu time      1.6426: real time      1.6427


--------------------------------------------------------------------------------------------------------


     LOOP+:  cpu time     70.9109: real time     71.0746
    4ORBIT:  cpu time      0.0000: real time      0.0000

 total amount of memory used by VASP MPI-rank0    67885. kBytes
=======================================================================

   base      :      30000. kBytes
   nonl-proj :      18246. kBytes
   fftplans  :       4926. kBytes
   grid      :       8190. kBytes
   one-center:         73. kBytes
   wavefun   :       6450. kBytes

  
  
 General timing and accounting informations for this job:
 ========================================================
  
                  Total CPU time used (sec):      103.544
                            User time (sec):      102.328
                          System time (sec):        1.216
                         Elapsed time (sec):      114.403
  
                   Maximum memory used (kb):      165288.
                   Average memory used (kb):          N/A
  
                          Minor page faults:        34621
                          Major page faults:            0
                 Voluntary context switches:        12465
