 **********************************************************************
                          MRCC program system
 **********************************************************************
 
                              Written by
     Mihaly Kallay, Peter R. Nagy, David Mester, Laszlo Gyevi-Nagy,
        Jozsef Csoka, P. Bernat Szabo, Zoltan Rolik, Gyula Samu,
     Jozsef Csontos, Bence Hegely, Adam Ganyecz, Istvan Ladjanszki,
       Lorant Szegedy, Bence Ladoczki, Klara Petrov, Mate Farkas,
                    Pal D. Mezei, and Reka A. Horvath
 
        Department of Physical Chemistry and Materials Science
            Budapest University of Technology and Economics
                  Budapest P.O.Box 91, H-1521 Hungary
 
                              www.mrcc.hu
 
                      Release date: March 18, 2022

 ************************ 2023-04-11 18:57:34 *************************
 Executing minp...

 Reading input from MINP...
 
 Input file:
 
calc=LNO-CCSD(T)
scftype=rhf
verbosity=3
mem=220GB
symm=off
unit=angs
scfiguess=small
scfmaxit=1000
scfalg=locfit1


lcorthr=tight
bpedo=0.99999
ccmaxit=400
usedisk=0
ccsdalg=dfdirect
ccsdthreads=4
ccsdmkl=thr
ptthreads=4

charge=-6
core=15

basis=special
aug-cc-pVTZ
aug-cc-pVTZ
aug-cc-pVTZ
aug-cc-pVTZ
cc-pVTZ
aug-cc-pVTZ
aug-cc-pVTZ
aug-cc-pVTZ
aug-cc-pVTZ
aug-cc-pVTZ
nothing
nothing
nothing
nothing
nothing
nothing
nothing
nothing
nothing
nothing
nothing
nothing
nothing
nothing
nothing
nothing
nothing
nothing
nothing
nothing
nothing
nothing
nothing
nothing
nothing
nothing
nothing
nothing
nothing
nothing
nothing
nothing

basis_sm=special
def2-SVP
def2-SVP
def2-SVP
def2-SVP
def2-SVP
def2-SVP
def2-SVP
def2-SVP
def2-SVP
def2-SVP
nothing
nothing
nothing
nothing
nothing
nothing
nothing
nothing
nothing
nothing
nothing
nothing
nothing
nothing
nothing
nothing
nothing
nothing
nothing
nothing
nothing
nothing
nothing
nothing
nothing
nothing
nothing
nothing
nothing
nothing
nothing
nothing

dfbasis_scf=special
def2-QZVPP-RI-JK
def2-QZVPP-RI-JK
def2-QZVPP-RI-JK
def2-QZVPP-RI-JK
def2-QZVPP-RI-JK
def2-QZVPP-RI-JK
def2-QZVPP-RI-JK
def2-QZVPP-RI-JK
def2-QZVPP-RI-JK
def2-QZVPP-RI-JK
nothing
nothing
nothing
nothing
nothing
nothing
nothing
nothing
nothing
nothing
nothing
nothing
nothing
nothing
nothing
nothing
nothing
nothing
nothing
nothing
nothing
nothing
nothing
nothing
nothing
nothing
nothing
nothing
nothing
nothing
nothing
nothing

dfbasis_cor=special
aug-cc-pVTZ-RI
aug-cc-pVTZ-RI
aug-cc-pVTZ-RI
aug-cc-pVTZ-RI
cc-pVTZ-RI
aug-cc-pVTZ-RI
aug-cc-pVTZ-RI
aug-cc-pVTZ-RI
aug-cc-pVTZ-RI
aug-cc-pVTZ-RI
nothing
nothing
nothing
nothing
nothing
nothing
nothing
nothing
nothing
nothing
nothing
nothing
nothing
nothing
nothing
nothing
nothing
nothing
nothing
nothing
nothing
nothing
nothing
nothing
nothing
nothing
nothing
nothing
nothing
nothing
nothing
nothing

ecp=special
none
none
none
none
none
none
none
none
none
none
ECP-22
ECP-22
ECP-22
ECP-22
ECP-22
ECP-22
ECP-22
ECP-22
ECP-22
ECP-22
ECP-22
ECP-22
ECP-22
ECP-22
ECP-22
ECP-22
ECP-22
ECP-22
ECP-22
ECP-22
ECP-22
ECP-22
ECP-22
ECP-22
ECP-22
ECP-22
ECP-22
ECP-22
ECP-22
ECP-22
ECP-22
ECP-22

unit=angs
geom=xyz
42
N1 H3 Ti1 O5 ECP32
N     1.08696518842   -0.00000009305    1.23710519961
H     0.44123724179   -0.00000009812    2.02707937735
H     1.69411477679   -0.81895599788    1.31372553080
H     1.69411473181    0.81895581130    1.31372550327
Ti    0.00000000000    0.00000000000   -0.78470163195
O    -1.65931196752   -0.00000001427    0.00000000000
O    -0.96790782391    0.00000013002   -2.39107888348
O     0.48191419882    1.92321403687   -0.74930529898
O     0.48191412838   -1.92321415670   -0.74930552111
O     1.92020220131   -0.00000003587   -1.56437186685
Ti   -2.78551524383   -0.00000001235   -1.47979682550
Ti    2.29583925195    1.89297887512   -1.56954627905
Ti    2.29583935517   -1.89297894838   -1.56954597647
Ti   -0.03135911375    3.80500941194   -0.94966962225
Ti   -0.03135918251   -3.80500946216   -0.94966978715
Ti   -1.44640900919    0.00000017332   -4.31400762541
Ti   -2.82534088990    3.78184218887   -1.49800854206
Ti   -2.82534095751   -3.78184229517   -1.49800831449
Ti    0.80236692900    1.89278918463   -5.15129598517
Ti    0.80236705796   -1.89278908691   -5.15129596957
Ti    5.08352345696    1.88226488583   -0.94355012178
Ti    5.08352338689   -1.88226490382   -0.94354943776
Ti   -1.46558215868    3.79032654937   -4.40061977897
Ti   -1.46558220591   -3.79032635210   -4.40061971890
Ti    3.68319111435    1.88778934557   -4.42532529261
Ti    3.68319109055   -1.88778916210   -4.42532477106
Ti   -5.19023539879    1.88226488583   -0.94355012178
Ti   -5.19023546887   -1.88226490382   -0.94354943776
Ti   -4.29168100755    0.00000008082   -5.12407161964
Ti    2.32871315604    5.68440676087   -1.51330047985
Ti    2.32871315604   -5.68440689162   -1.51330047985
Ti    0.80887157667    5.68440683623   -5.14118576391
Ti    0.80887157667   -5.68440681625   -5.14118576391
Ti   -4.32345221993    3.79102367205   -5.13079265213
Ti   -4.32345204933   -3.79102349861   -5.13079264059
Ti    5.98207784820    0.00000008082   -5.12407161964
Ti    7.48824361192   -0.00000001235   -1.47979682550
Ti   -0.03135918251    7.56380419033   -0.94966978715
Ti   -0.03135911375   -7.56380424054   -0.94966962225
Ti   -2.88019247095    0.00000005303   -7.85623897039
Ti    5.10782386795    5.68440672118   -0.94223014971
Ti    5.10782386795   -5.68440693131   -0.94223014971



ghost=serialno


qmmm=Amber
pointcharges
9572
     -2.78551524383   -0.00000001235   -1.47979682550    4.00000000000
      2.29583925195    1.89297887512   -1.56954627905    4.00000000000
      2.29583935517   -1.89297894838   -1.56954597647    4.00000000000
     -3.19665888055    1.89067000888   -1.48726276009   -2.00000000000
--------------------Output has been truncated-------------------------


--------------------Output has been truncated-------------------------


--------------------Output has been truncated-------------------------


--------------------Output has been truncated-------------------------


--------------------Output has been truncated-------------------------


--------------------Output has been truncated-------------------------


--------------------Output has been truncated-------------------------


--------------------Output has been truncated-------------------------


--------------------Output has been truncated-------------------------


--------------------Output has been truncated-------------------------


 
 Final local CC results:
 
 Minimum number of correlated electrons:        38       ( 79.2%)
 Maximum number of correlated electrons:        48       (100.0%)
 Average number of correlated electrons:        44.0     ( 91.7%)
 Minimum number of correlated orbitals:        124       ( 31.2%)
 Maximum number of correlated orbitals:        175       ( 44.0%)
 Average number of correlated orbitals:        136.7     ( 34.3%)
 
 CPU time for integral calculations [min]:                  3.769
 Wall time for integral calculations [min]:                 1.920
 
 CPU time for SCF calculation [min]:                       12.975
 Wall time for SCF calculation [min]:                       0.369
 
 CPU time for orbital localization [min]:                   0.139
 Wall time for orbital localization [min]:                  0.008
 
 CPU time for integral transformations [min]:             137.417
 Wall time for integral transformations [min]:              4.022
 
 Reference energy [au]:                                -83404.021812808744
 
 LMP2 correlation energy [au]:                             -1.664489280773
 Total LMP2 energy [au]:                               -83405.686302089511
 
 Total MP2 correction for dropped NAFs [au]:               -0.000014486403
 Total MP2 correction [au]:                                -0.003201644259
 
 CPU time for CCSD calculations [min]:                    170.728
 Total CPU time for CCSD [min]:                           325.028
 Wall time for CCSD calculations [min]:                     5.590
 Total wall time for CCSD [min]:                           11.908
 
 CCSD correlation energy [au]:                             -1.654854269127
 Total CCSD energy [au]:                               -83405.676667077874
 CCSD correlation energy + 0.5 MP2 corrections [au]:       -1.656455091257
 Total LNO-CCSD energy with MP2 corrections [au]:      -83405.678267900003
 
 CPU time for (T) corrections [min]:                      124.032
 Total CPU time for CCSD(T) [min]:                        449.061
 Wall time for (T) corrections [min]:                       3.685
 Total wall time for CCSD(T) [min]:                        15.593
 
 Total (T) correlation energy contribution [au]:           -0.074835570545
 Total (T) correlation energy+0.5 MP2 correction [au]:     -0.076436392675
 CCSD(T) correlation energy [au]:                          -1.729689839672
 Total CCSD(T) energy [au]:                            -83405.751502648418
 CCSD(T) correlation energy + MP2 corrections [au]:        -1.732891483931
 Total LNO-CCSD(T) energy with MP2 corrections [au]:   -83405.754704292674
 
 ======================================================================
 ======================================================================
 
 ************************ 2023-04-11 19:14:18 *************************
                      Normal termination of mrcc.
 **********************************************************************
