 vasp.6.3.0 20Jan22 (build Aug 21 2024 11:13:42) complex                         
 executed on        HPECrayEX_GCC date 2024.11.26  19:20:15
 running  512 mpi-ranks, with    1 threads/rank
 distrk:  each k-point on  512 cores,    1 groups
 distr:  one band on NCORE=  16 cores,   32 groups


--------------------------------------------------------------------------------------------------------


 INCAR:
   SYSTEM = TiO2
   ISMEAR = 0
   SIGMA = 0.05
   EDIFF = 1E-4
   ALGO = ALL
   ISTART = 0
   IBRION = -1
   NSW = 0
   ISYM = 0
   ISIF = 2
   EDIFFG = -0.01
   DIPOL = 0.5 0.5 0.5
   IDIPOL = 3
   LDIPOL = .TRUE.
   GGA = MK
   LUSE_VDW = .TRUE.
   PARAM1 = 0.1234
   PARAM2 = 0.711357
   ZAB_VDW = -1.8867
   AGGAC = 0.0
   ENCUT = 600
   PREC = Accurate
   LASPH = .TRUE.
   LREAL = .FALSE.
   ISPIN = 1
   NELM = 200
   NELMIN = 8
   NCORE = 16
   KPAR = 1
   LWAVE = .FALSE.
   LCHARG = .FALSE.

 POTCAR:    PAW_PBE C 08Apr2002                   
 POTCAR:    PAW_PBE O 08Apr2002                   
 POTCAR:    PAW_PBE Ti_pv 07Sep2000               
 POTCAR:    PAW_PBE O 08Apr2002                   
 -----------------------------------------------------------------------------
|                                                                             |
|               ----> ADVICE to this user running VASP <----                  |
|                                                                             |
|     You have switched on vdW-DFT.                                           |
|     This routine was written and supplied by Jiri Klimes. We recommend      |
|     that you carefully read and cite the following publications:            |
|       J. Klimes, D.R. Bowler, A. Michelides                                 |
|          J. Phys.: Cond Matt. 22 022201 (2010)                              |
|       J. Klimes, D.R. Bowler, A. Michelides                                 |
|          Phys. Rev. B. 83, 195131 (2011)                                    |
|     and references therein.                                                 |
|                                                                             |
 -----------------------------------------------------------------------------

 POTCAR:    PAW_PBE C 08Apr2002                   
   SHA256 =  253f7b50bb8d59471dbedb8285d89021f4a42ed1a2c5d38a03a736e69125dd95 C/POTCAR              
   COPYR  = (c) Copyright 08Apr2002 Georg Kresse                                                    
   COPYR  = This file is part of the software VASP. Any use, copying, and all other rights are regul
   COPYR  = If you do not have a valid VASP license, you may not use, copy or distribute this file. 
   VRHFIN =C: s2p2                                                                                  
   LEXCH  = PE                                                                                      
   EATOM  =   147.1560 eV,   10.8157 Ry                                                             
                                                                                                    
   TITEL  = PAW_PBE C 08Apr2002                                                                     
   LULTRA =        F    use ultrasoft PP ?                                                          
   IUNSCR =        1    unscreen: 0-lin 1-nonlin 2-no                                               
   RPACOR =    1.200    partial core radius                                                         
   POMASS =   12.011; ZVAL   =    4.000    mass and valenz                                          
   RCORE  =    1.500    outmost cutoff radius                                                       
   RWIGS  =    1.630; RWIGS  =    0.863    wigner-seitz radius (au A)                               
   ENMAX  =  400.000; ENMIN  =  300.000 eV                                                          
   ICORE  =        2    local potential                                                             
   LCOR   =        T    correct aug charges                                                         
   LPAW   =        T    paw PP                                                                      
   EAUG   =  644.873                                                                                
   DEXC   =    0.000                                                                                
   RMAX   =    1.529    core radius for proj-oper                                                   
   RAUG   =    1.300    factor for augmentation sphere                                              
   RDEP   =    1.501    radius for radial grids                                                     
   RDEPT  =    1.300    core radius for aug-charge                                                  
                                                                                                    
   Atomic configuration                                                                             
    4 entries                                                                                       
     n  l   j            E        occ.                                                              
     1  0  0.50      -273.3789   2.0000                                                             
     2  0  0.50       -13.7508   2.0000                                                             
     2  1  0.50        -5.2854   2.0000                                                             
     3  2  1.50        -5.4423   0.0000                                                             
   Description                                                                                      
     l       E           TYP  RCUT    TYP  RCUT                                                     
     0    -13.7508458     23  1.200                                                                 
     0     -8.2022199     23  1.200                                                                 
     1     -5.2854383     23  1.500                                                                 
     1     34.0145650     23  1.500                                                                 
     2     -5.4423304      7  1.500                                                                 
  local pseudopotential read in
  partial core-charges read in
  partial kinetic energy density read in
  atomic valenz-charges read in
  non local Contribution for L=           0  read in
    real space projection operators read in
  non local Contribution for L=           0  read in
    real space projection operators read in
  non local Contribution for L=           1  read in
    real space projection operators read in
  non local Contribution for L=           1  read in
    real space projection operators read in
    PAW grid and wavefunctions read in

   number of l-projection  operators is LMAX  =           4
   number of lm-projection operators is LMMAX =           8

 POTCAR:    PAW_PBE O 08Apr2002                   
   SHA256 =  818f92134a0a090dccd8ba1447fa70422a3b330e708bb4f08108d8ae51209ddf O/POTCAR              
   COPYR  = (c) Copyright 08Apr2002 Georg Kresse                                                    
   COPYR  = This file is part of the software VASP. Any use, copying, and all other rights are regul
   COPYR  = If you do not have a valid VASP license, you may not use, copy or distribute this file. 
   VRHFIN =O: s2p4                                                                                  
   LEXCH  = PE                                                                                      
   EATOM  =   432.3788 eV,   31.7789 Ry                                                             
                                                                                                    
   TITEL  = PAW_PBE O 08Apr2002                                                                     
   LULTRA =        F    use ultrasoft PP ?                                                          
   IUNSCR =        1    unscreen: 0-lin 1-nonlin 2-no                                               
   RPACOR =    1.200    partial core radius                                                         
   POMASS =   16.000; ZVAL   =    6.000    mass and valenz                                          
   RCORE  =    1.520    outmost cutoff radius                                                       
   RWIGS  =    1.550; RWIGS  =    0.820    wigner-seitz radius (au A)                               
   ENMAX  =  400.000; ENMIN  =  300.000 eV                                                          
   ICORE  =        2    local potential                                                             
   LCOR   =        T    correct aug charges                                                         
   LPAW   =        T    paw PP                                                                      
   EAUG   =  605.392                                                                                
   DEXC   =    0.000                                                                                
   RMAX   =    1.553    core radius for proj-oper                                                   
   RAUG   =    1.300    factor for augmentation sphere                                              
   RDEP   =    1.550    radius for radial grids                                                     
   RDEPT  =    1.329    core radius for aug-charge                                                  
                                                                                                    
   Atomic configuration                                                                             
    4 entries                                                                                       
     n  l   j            E        occ.                                                              
     1  0  0.50      -514.6923   2.0000                                                             
     2  0  0.50       -23.9615   2.0000                                                             
     2  1  0.50        -9.0305   4.0000                                                             
     3  2  1.50        -9.5241   0.0000                                                             
   Description                                                                                      
     l       E           TYP  RCUT    TYP  RCUT                                                     
     0    -23.9615318     23  1.200                                                                 
     0     -9.5240782     23  1.200                                                                 
     1     -9.0304911     23  1.520                                                                 
     1      8.1634956     23  1.520                                                                 
     2     -9.5240782      7  1.500                                                                 
  local pseudopotential read in
  partial core-charges read in
  partial kinetic energy density read in
  kinetic energy density of atom read in
  atomic valenz-charges read in
  non local Contribution for L=           0  read in
    real space projection operators read in
  non local Contribution for L=           0  read in
    real space projection operators read in
  non local Contribution for L=           1  read in
    real space projection operators read in
  non local Contribution for L=           1  read in
    real space projection operators read in
    PAW grid and wavefunctions read in

   number of l-projection  operators is LMAX  =           4
   number of lm-projection operators is LMMAX =           8

 POTCAR:    PAW_PBE Ti_pv 07Sep2000               
   SHA256 =  f757a1b2c6d082f4c628fa3d987464a8763bf92e53844ac0500b0e2ddc9ce5c0 Ti_pv/POTCAR          
   COPYR  = (c) Copyright 07Sep2000 Georg Kresse                                                    
   COPYR  = This file is part of the software VASP. Any use, copying, and all other rights are regul
   COPYR  = If you do not have a valid VASP license, you may not use, copy or distribute this file. 
   VRHFIN =Ti: d3 s1                                                                                
   LEXCH  = PE                                                                                      
   EATOM  =  1042.5995 eV,   76.6289 Ry                                                             
                                                                                                    
   TITEL  = PAW_PBE Ti_pv 07Sep2000                                                                 
   LULTRA =        F    use ultrasoft PP ?                                                          
   IUNSCR =        1    unscreen: 0-lin 1-nonlin 2-no                                               
   RPACOR =    2.200    partial core radius                                                         
   POMASS =   47.880; ZVAL   =   10.000    mass and valenz                                          
   RCORE  =    2.500    outmost cutoff radius                                                       
   RWIGS  =    2.500; RWIGS  =    1.323    wigner-seitz radius (au A)                               
   ENMAX  =  222.335; ENMIN  =  166.751 eV                                                          
   RCLOC  =    1.701    cutoff for local pot                                                        
   LCOR   =        T    correct aug charges                                                         
   LPAW   =        T    paw PP                                                                      
   EAUG   =  482.848                                                                                
   DEXC   =    0.000                                                                                
   RMAX   =    2.564    core radius for proj-oper                                                   
   RAUG   =    1.300    factor for augmentation sphere                                              
   RDEP   =    2.538    radius for radial grids                                                     
   RDEPT  =    1.952    core radius for aug-charge                                                  
                                                                                                    
   Atomic configuration                                                                             
    8 entries                                                                                       
     n  l   j            E        occ.                                                              
     1  0  0.50     -4865.3608   2.0000                                                             
     2  0  0.50      -533.1368   2.0000                                                             
     2  1  1.50      -440.5031   6.0000                                                             
     3  0  0.50       -59.3186   2.0000                                                             
     3  1  1.50       -35.7012   6.0000                                                             
     3  2  2.50        -1.9157   3.0000                                                             
     4  0  0.50        -3.7291   1.0000                                                             
     4  3  2.50        -1.3606   0.0000                                                             
   Description                                                                                      
     l       E           TYP  RCUT    TYP  RCUT                                                     
     1    -35.7012140     23  2.300                                                                 
     1     -1.3605826     23  2.300                                                                 
     2     -1.9156996     23  2.500                                                                 
     2     -0.4063033     23  2.500                                                                 
     0     -3.7290856     23  2.500                                                                 
     0     20.4087390     23  2.500                                                                 
  local pseudopotential read in
  partial core-charges read in
  partial kinetic energy density read in
  atomic valenz-charges read in
  non local Contribution for L=           1  read in
    real space projection operators read in
  non local Contribution for L=           1  read in
    real space projection operators read in
  non local Contribution for L=           2  read in
    real space projection operators read in
  non local Contribution for L=           2  read in
    real space projection operators read in
  non local Contribution for L=           0  read in
    real space projection operators read in
  non local Contribution for L=           0  read in
    real space projection operators read in
    PAW grid and wavefunctions read in

   number of l-projection  operators is LMAX  =           6
   number of lm-projection operators is LMMAX =          18

 POTCAR:    PAW_PBE O 08Apr2002                   
   SHA256 =  818f92134a0a090dccd8ba1447fa70422a3b330e708bb4f08108d8ae51209ddf O/POTCAR              
   COPYR  = (c) Copyright 08Apr2002 Georg Kresse                                                    
   COPYR  = This file is part of the software VASP. Any use, copying, and all other rights are regul
   COPYR  = If you do not have a valid VASP license, you may not use, copy or distribute this file. 
   VRHFIN =O: s2p4                                                                                  
   LEXCH  = PE                                                                                      
   EATOM  =   432.3788 eV,   31.7789 Ry                                                             
                                                                                                    
   TITEL  = PAW_PBE O 08Apr2002                                                                     
   LULTRA =        F    use ultrasoft PP ?                                                          
   IUNSCR =        1    unscreen: 0-lin 1-nonlin 2-no                                               
   RPACOR =    1.200    partial core radius                                                         
   POMASS =   16.000; ZVAL   =    6.000    mass and valenz                                          
   RCORE  =    1.520    outmost cutoff radius                                                       
   RWIGS  =    1.550; RWIGS  =    0.820    wigner-seitz radius (au A)                               
   ENMAX  =  400.000; ENMIN  =  300.000 eV                                                          
   ICORE  =        2    local potential                                                             
   LCOR   =        T    correct aug charges                                                         
   LPAW   =        T    paw PP                                                                      
   EAUG   =  605.392                                                                                
   DEXC   =    0.000                                                                                
   RMAX   =    1.553    core radius for proj-oper                                                   
   RAUG   =    1.300    factor for augmentation sphere                                              
   RDEP   =    1.550    radius for radial grids                                                     
   RDEPT  =    1.329    core radius for aug-charge                                                  
                                                                                                    
   Atomic configuration                                                                             
    4 entries                                                                                       
     n  l   j            E        occ.                                                              
     1  0  0.50      -514.6923   2.0000                                                             
     2  0  0.50       -23.9615   2.0000                                                             
     2  1  0.50        -9.0305   4.0000                                                             
     3  2  1.50        -9.5241   0.0000                                                             
   Description                                                                                      
     l       E           TYP  RCUT    TYP  RCUT                                                     
     0    -23.9615318     23  1.200                                                                 
     0     -9.5240782     23  1.200                                                                 
     1     -9.0304911     23  1.520                                                                 
     1      8.1634956     23  1.520                                                                 
     2     -9.5240782      7  1.500                                                                 
  local pseudopotential read in
  partial core-charges read in
  partial kinetic energy density read in
  kinetic energy density of atom read in
  atomic valenz-charges read in
  non local Contribution for L=           0  read in
    real space projection operators read in
  non local Contribution for L=           0  read in
    real space projection operators read in
  non local Contribution for L=           1  read in
    real space projection operators read in
  non local Contribution for L=           1  read in
    real space projection operators read in
    PAW grid and wavefunctions read in

   number of l-projection  operators is LMAX  =           4
   number of lm-projection operators is LMMAX =           8

 -----------------------------------------------------------------------------
|                                                                             |
|               ----> ADVICE to this user running VASP <----                  |
|                                                                             |
|     You have a (more or less) 'large supercell' and for larger cells it     |
|     might be more efficient to use real-space projection operators.         |
|     Therefore, try LREAL= Auto in the INCAR file.                           |
|     Mind: For very accurate calculation, you might also keep the            |
|     reciprocal projection scheme (i.e. LREAL=.FALSE.).                      |
|                                                                             |
 -----------------------------------------------------------------------------

 -----------------------------------------------------------------------------
|                                                                             |
|               ----> ADVICE to this user running VASP <----                  |
|                                                                             |
|     You enforced a specific xc type in the INCAR file but a different       |
|     type was found in the POTCAR file.                                      |
|     I HOPE YOU KNOW WHAT YOU ARE DOING!                                     |
|                                                                             |
 -----------------------------------------------------------------------------

  PAW_PBE C 08Apr2002                   :
 energy of atom  1       EATOM= -147.1560
 kinetic energy error for atom=    0.0057 (will be added to EATOM!!)
  PAW_PBE O 08Apr2002                   :
 energy of atom  2       EATOM= -432.3788
 kinetic energy error for atom=    0.0168 (will be added to EATOM!!)
  PAW_PBE Ti_pv 07Sep2000               :
 energy of atom  3       EATOM=-1042.5995
 kinetic energy error for atom=    0.0007 (will be added to EATOM!!)
  PAW_PBE O 08Apr2002                   :
 energy of atom  4       EATOM= -432.3788
 kinetic energy error for atom=    0.0168 (will be added to EATOM!!)


 POSCAR:  C  O Ti  O
  positions in direct lattice
  No initial velocities read in
 exchange correlation table for  LEXCH =       43
   RHO(1)=    0.500       N(1)  =     2000
   RHO(2)=  100.500       N(2)  =     4000



--------------------------------------------------------------------------------------------------------


 ion  position               nearest neighbor table
   1  0.422  0.500  0.817-   2 1.17   3 1.18
   2  0.364  0.500  0.846-   1 1.17
   3  0.485  0.500  0.789-   1 1.18  83 2.42
   4  0.750  0.625  0.287-  84 1.96  85 1.96 144 1.96 145 1.96  87 1.99 166 1.99  14 2.96  34 2.96

   5  0.000  0.750  0.287-  86 1.96  87 1.96 106 1.96 107 1.96  88 1.99  35 2.96  15 2.96
   6  0.000  0.625  0.393-  88 1.96  89 1.96 148 1.96 149 1.96  90 1.99  91 1.99  16 2.96  36 2.96

   7  0.750  0.750  0.393-  90 1.96 110 1.96 171 1.96 191 1.96  92 1.99  85 1.99  17 2.96  37 2.96

   8  0.750  0.625  0.500-  92 1.96  93 1.96 152 1.96 153 1.96  95 1.99 174 1.99  18 2.96  38 2.96

   9  0.000  0.750  0.500-  94 1.96  95 1.96 114 1.96 115 1.96  89 1.99  96 2.01  19 2.96  39 2.96

  10  0.000  0.625  0.604- 156 1.90  96 1.90  99 1.96  98 1.96  97 2.02 157 2.02  20 2.96  40 2.96

  11  0.750  0.750  0.611- 100 1.87 179 1.98  98 1.98 199 1.98 118 1.98  93 2.11  41 2.96  21 2.96

  12  0.750  0.625  0.720- 101 1.83 161 1.83 182 2.04 103 2.04 160 2.10 100 2.10  22 2.96  42 2.96

  13  1.000  0.750  0.709-  97 1.82 123 1.95 122 1.95 103 1.95 102 1.95  23 2.96  43 2.96
  14  0.750  0.875  0.287-  84 1.96  85 1.96 104 1.96 105 1.96 107 1.99 186 1.99   4 2.96  24 2.96

  15  0.000  0.000  0.287- 106 1.96 107 1.96 126 1.96 127 1.96 108 1.99  25 2.96   5 2.96
  16  0.000  0.875  0.393-  88 1.96  89 1.96 108 1.96 109 1.96 110 1.99 111 1.99   6 2.96  26 2.96

  17  0.750  0.000  0.393- 110 1.96 130 1.96 191 1.96 211 1.96 112 1.99 105 1.99   7 2.96  27 2.96

  18  0.750  0.875  0.500-  92 1.96  93 1.96 112 1.96 113 1.96 115 1.99 194 1.99   8 2.96  28 2.96

  19  0.000  0.000  0.500- 114 1.96 115 1.96 134 1.96 135 1.96 109 1.99 116 2.01   9 2.96  29 2.96

  20  1.000  0.875  0.605-  96 1.90 116 1.90 118 1.96 119 1.96 117 2.02  97 2.02  30 2.96  10 2.96

  21  0.750  1.000  0.611- 120 1.87 199 1.98 219 1.98 138 1.98 118 1.98 113 2.11  31 2.96  11 2.96

  22  0.750  0.875  0.720- 121 1.83 101 1.83 202 2.04 123 2.04 100 2.10 120 2.10  32 2.96  12 2.96

  23  0.000  0.000  0.709- 117 1.82 142 1.95 122 1.95 143 1.95 123 1.95  33 2.96  13 2.96
  24  0.750  0.125  0.287- 104 1.96 105 1.96 124 1.96 125 1.96 127 1.99 206 1.99  14 2.96  34 2.96

  25  0.000  0.250  0.287- 126 1.96 127 1.96 146 1.96 147 1.96 128 1.99  35 2.96  15 2.96
  26  0.000  0.125  0.393- 108 1.96 109 1.96 128 1.96 129 1.96 130 1.99 131 1.99  16 2.96  36 2.96

  27  0.750  0.250  0.393- 130 1.96 150 1.96 211 1.96 231 1.96 132 1.99 125 1.99  17 2.96  37 2.96

  28  0.750  0.125  0.500- 112 1.96 113 1.96 132 1.96 133 1.96 135 1.99 214 1.99  18 2.96  38 2.96

  29  0.000  0.250  0.500- 134 1.96 135 1.96 154 1.96 155 1.96 129 1.99 136 2.01  19 2.96  39 2.96

  30  1.000  0.125  0.605- 136 1.90 116 1.90 138 1.96 139 1.96 117 2.02 137 2.02  20 2.96  40 2.96

  31  0.750  0.250  0.611- 140 1.87 239 1.98 158 1.98 219 1.98 138 1.98 133 2.11  41 2.96  21 2.96

  32  0.750  0.125  0.720- 121 1.83 141 1.83 222 2.04 143 2.04 140 2.10 120 2.10  22 2.96  42 2.96

  33  1.000  0.250  0.709- 137 1.82 143 1.95 142 1.95 163 1.95 162 1.95  23 2.96  43 2.96
  34  0.750  0.375  0.287- 124 1.96 125 1.96 144 1.96 145 1.96 147 1.99 226 1.99   4 2.96  24 2.96

  35  0.000  0.500  0.287-  86 1.96  87 1.96 146 1.96 147 1.96 148 1.99  25 2.96   5 2.96
  36  0.000  0.375  0.393- 128 1.96 129 1.96 148 1.96 149 1.96 150 1.99 151 1.99   6 2.96  26 2.96

  37  0.750  0.500  0.393-  90 1.96 150 1.96 171 1.96 231 1.96 145 1.99 152 1.99   7 2.96  27 2.96

  38  0.750  0.375  0.500- 132 1.96 133 1.96 152 1.96 153 1.96 155 1.99 234 1.99   8 2.96  28 2.96

  39  0.000  0.500  0.500-  94 1.96  95 1.96 154 1.96 155 1.96 149 1.99 156 2.01   9 2.96  29 2.96

  40  0.000  0.375  0.604- 156 1.90 136 1.90 159 1.96 158 1.96 137 2.02 157 2.02  30 2.96  10 2.96

  41  0.750  0.500  0.611- 160 1.87 239 1.98 179 1.98 158 1.98  98 1.98 153 2.11  11 2.96  31 2.96

  42  0.750  0.375  0.720- 141 1.83 161 1.83 242 2.04 163 2.04 160 2.10 140 2.10  32 2.96  12 2.96

  43  0.999  0.500  0.709- 157 1.82 163 1.95 103 1.95 102 1.95 162 1.95  33 2.96  13 2.96
  44  0.250  0.625  0.287- 164 1.96 165 1.96 224 1.96 225 1.96  86 1.99 167 1.99  54 2.96  74 2.96

  45  0.500  0.750  0.287- 166 1.96 167 1.96 186 1.96 187 1.96 168 1.99  75 2.96  55 2.96
  46  0.500  0.625  0.393- 168 1.96 169 1.96 228 1.96 229 1.96 170 1.99 171 1.99  56 2.96  76 2.96

  47  0.250  0.750  0.393-  91 1.96 111 1.96 170 1.96 190 1.96 172 1.99 165 1.99  57 2.96  77 2.96

  48  0.250  0.625  0.500- 172 1.96 173 1.96 232 1.96 233 1.96  94 1.99 175 1.99  58 2.96  78 2.96

  49  0.500  0.750  0.500- 174 1.96 175 1.96 194 1.96 195 1.96 169 1.99 176 2.00  59 2.96  79 2.96

  50  0.500  0.624  0.605- 236 1.90 176 1.92 179 1.96 178 1.96 177 2.01 237 2.01  80 2.94  60 2.97

  51  0.250  0.750  0.611- 180 1.87 198 1.98 178 1.98 119 1.98  99 1.98 173 2.11  61 2.96  81 2.96

  52  0.249  0.625  0.720- 181 1.83 241 1.84 102 2.03 183 2.04 180 2.09 240 2.09  62 2.96  82 2.97

  53  0.500  0.750  0.708- 177 1.81 183 1.94 182 1.94 202 1.95 203 1.95  63 2.96  83 2.96
  54  0.250  0.875  0.287- 164 1.96 165 1.96 184 1.96 185 1.96 106 1.99 187 1.99  44 2.96  64 2.96

  55  0.500  0.000  0.287- 186 1.96 187 1.96 206 1.96 207 1.96 188 1.99  65 2.96  45 2.96
  56  0.500  0.875  0.393- 168 1.96 169 1.96 188 1.96 189 1.96 190 1.99 191 1.99  46 2.96  66 2.96

  57  0.250  0.000  0.393- 111 1.96 131 1.96 190 1.96 210 1.96 192 1.99 185 1.99  47 2.96  67 2.96

  58  0.250  0.875  0.500- 172 1.96 173 1.96 192 1.96 193 1.96 114 1.99 195 1.99  48 2.96  68 2.96

  59  0.500  0.000  0.500- 194 1.96 195 1.96 214 1.96 215 1.96 189 1.99 196 2.00  49 2.96  69 2.96

  60  0.500  0.875  0.604- 176 1.90 196 1.90 199 1.96 198 1.96 177 2.01 197 2.02  50 2.97  70 2.97

  61  0.250  1.000  0.611- 200 1.87 198 1.98 218 1.98 119 1.98 139 1.98 193 2.11  51 2.96  71 2.96

  62  0.250  0.875  0.720- 201 1.83 181 1.84 203 2.03 122 2.04 200 2.10 180 2.10  52 2.96  72 2.96

  63  0.500  0.000  0.708- 197 1.82 202 1.95 222 1.95 203 1.95 223 1.95  73 2.96  53 2.96
  64  0.250  0.125  0.287- 184 1.96 185 1.96 204 1.96 205 1.96 126 1.99 207 1.99  54 2.96  74 2.96

  65  0.500  0.250  0.287- 206 1.96 207 1.96 226 1.96 227 1.96 208 1.99  75 2.96  55 2.96
  66  0.500  0.125  0.393- 188 1.96 189 1.96 208 1.96 209 1.96 210 1.99 211 1.99  56 2.96  76 2.96

  67  0.250  0.250  0.393- 131 1.96 151 1.96 210 1.96 230 1.96 212 1.99 205 1.99  57 2.96  77 2.96

  68  0.250  0.125  0.500- 192 1.96 193 1.96 212 1.96 213 1.96 134 1.99 215 1.99  58 2.96  78 2.96

  69  0.500  0.250  0.500- 214 1.96 215 1.96 234 1.96 235 1.96 209 1.99 216 2.00  59 2.96  79 2.96

  70  0.500  0.125  0.604- 216 1.90 196 1.90 219 1.96 218 1.96 217 2.01 197 2.02  80 2.97  60 2.97

  71  0.250  0.250  0.611- 220 1.87 218 1.98 238 1.98 139 1.98 159 1.98 213 2.11  61 2.96  81 2.96

  72  0.250  0.125  0.720- 201 1.83 221 1.84 223 2.03 142 2.04 200 2.10 220 2.10  82 2.96  62 2.96

  73  0.500  0.250  0.708- 217 1.81 243 1.94 242 1.94 222 1.95 223 1.95  63 2.96  83 2.96
  74  0.250  0.375  0.287- 204 1.96 205 1.96 224 1.96 225 1.96 146 1.99 227 1.99  44 2.96  64 2.96

  75  0.500  0.500  0.287- 166 1.96 167 1.96 226 1.96 227 1.96 228 1.99  65 2.96  45 2.96
  76  0.500  0.375  0.393- 208 1.96 209 1.96 228 1.96 229 1.96 230 1.99 231 1.99  46 2.96  66 2.96

  77  0.250  0.500  0.393-  91 1.96 151 1.96 170 1.96 230 1.96 225 1.99 232 1.99  47 2.96  67 2.96

  78  0.250  0.375  0.500- 212 1.96 213 1.96 232 1.96 233 1.96 154 1.99 235 1.99  48 2.96  68 2.96

  79  0.500  0.500  0.500- 174 1.96 175 1.96 234 1.96 235 1.96 229 1.99 236 2.01  49 2.96  69 2.96

  80  0.500  0.376  0.605- 236 1.90 216 1.92 239 1.96 238 1.96 217 2.01 237 2.01  50 2.94  70 2.97

  81  0.250  0.500  0.611- 240 1.87 238 1.98 178 1.98 159 1.98  99 1.98 233 2.11  71 2.96  51 2.96

  82  0.249  0.375  0.720- 221 1.83 241 1.84 162 2.03 243 2.04 220 2.09 240 2.09  72 2.96  52 2.97

  83  0.499  0.500  0.711- 237 1.85 183 1.95 243 1.95 242 1.95 182 1.95   3 2.42  53 2.96  73 2.96

  84  0.750  0.750  0.245-   4 1.96  14 1.96
  85  0.750  0.750  0.328-   4 1.96  14 1.96   7 1.99
  86  0.098  0.625  0.287-   5 1.96  35 1.96  44 1.99
  87  0.902  0.625  0.287-   5 1.96  35 1.96   4 1.99
  88  0.000  0.750  0.352-   6 1.96  16 1.96   5 1.99
  89  0.000  0.750  0.435-   6 1.96  16 1.96   9 1.99
  90  0.848  0.625  0.393-   7 1.96  37 1.96   6 1.99
  91  0.152  0.625  0.393-  47 1.96  77 1.96   6 1.99
  92  0.750  0.750  0.458-   8 1.96  18 1.96   7 1.99
  93  0.750  0.750  0.542-   8 1.96  18 1.96  11 2.11
  94  0.098  0.625  0.500-   9 1.96  39 1.96  48 1.99
  95  0.902  0.625  0.500-   9 1.96  39 1.96   8 1.99
  96  1.000  0.750  0.565-  20 1.90  10 1.90   9 2.01
  97  0.000  0.750  0.649-  13 1.82  10 2.02  20 2.02
  98  0.850  0.625  0.607-  10 1.96  11 1.98  41 1.98
  99  0.150  0.625  0.607-  10 1.96  51 1.98  81 1.98
 100  0.750  0.750  0.672-  11 1.87  22 2.10  12 2.10
 101  0.750  0.750  0.756-  12 1.83  22 1.83
 102  0.094  0.625  0.719-  43 1.95  13 1.95  52 2.03
 103  0.906  0.625  0.719-  43 1.95  13 1.95  12 2.04
 104  0.750  0.000  0.245-  14 1.96  24 1.96
 105  0.750  0.000  0.328-  14 1.96  24 1.96  17 1.99
 106  0.098  0.875  0.287-   5 1.96  15 1.96  54 1.99
 107  0.902  0.875  0.287-   5 1.96  15 1.96  14 1.99
 108  0.000  0.000  0.352-  16 1.96  26 1.96  15 1.99
 109  0.000  0.000  0.435-  16 1.96  26 1.96  19 1.99
 110  0.848  0.875  0.393-   7 1.96  17 1.96  16 1.99
 111  0.152  0.875  0.393-  47 1.96  57 1.96  16 1.99
 112  0.750  0.000  0.458-  18 1.96  28 1.96  17 1.99
 113  0.750  0.000  0.542-  18 1.96  28 1.96  21 2.11
 114  0.098  0.875  0.500-   9 1.96  19 1.96  58 1.99
 115  0.902  0.875  0.500-   9 1.96  19 1.96  18 1.99
 116  1.000  0.000  0.566-  30 1.90  20 1.90  19 2.01
 117  0.000  0.000  0.649-  23 1.82  30 2.02  20 2.02
 118  0.850  0.875  0.607-  20 1.96  21 1.98  11 1.98
 119  0.150  0.875  0.607-  20 1.96  61 1.98  51 1.98
 120  0.750  1.000  0.672-  21 1.87  22 2.10  32 2.10
 121  0.750  0.000  0.756-  32 1.83  22 1.83
 122  0.094  0.875  0.719-  13 1.95  23 1.95  62 2.04
 123  0.906  0.875  0.719-  13 1.95  23 1.95  22 2.04
 124  0.750  0.250  0.245-  24 1.96  34 1.96
 125  0.750  0.250  0.328-  24 1.96  34 1.96  27 1.99
 126  0.098  0.125  0.287-  15 1.96  25 1.96  64 1.99
 127  0.902  0.125  0.287-  15 1.96  25 1.96  24 1.99
 128  0.000  0.250  0.352-  26 1.96  36 1.96  25 1.99
 129  0.000  0.250  0.435-  26 1.96  36 1.96  29 1.99
 130  0.848  0.125  0.393-  17 1.96  27 1.96  26 1.99
 131  0.152  0.125  0.393-  57 1.96  67 1.96  26 1.99
 132  0.750  0.250  0.458-  28 1.96  38 1.96  27 1.99
 133  0.750  0.250  0.542-  28 1.96  38 1.96  31 2.11
 134  0.098  0.125  0.500-  19 1.96  29 1.96  68 1.99
 135  0.902  0.125  0.500-  19 1.96  29 1.96  28 1.99
 136  1.000  0.250  0.565-  30 1.90  40 1.90  29 2.01
 137  0.000  0.250  0.649-  33 1.82  40 2.02  30 2.02
 138  0.850  0.125  0.607-  30 1.96  21 1.98  31 1.98
 139  0.150  0.125  0.607-  30 1.96  61 1.98  71 1.98
 140  0.750  0.250  0.672-  31 1.87  32 2.10  42 2.10
 141  0.750  0.250  0.756-  42 1.83  32 1.83
 142  0.094  0.125  0.719-  33 1.95  23 1.95  72 2.04
 143  0.906  0.125  0.719-  33 1.95  23 1.95  32 2.04
 144  0.750  0.500  0.245-   4 1.96  34 1.96
 145  0.750  0.500  0.328-   4 1.96  34 1.96  37 1.99
 146  0.098  0.375  0.287-  25 1.96  35 1.96  74 1.99
 147  0.902  0.375  0.287-  25 1.96  35 1.96  34 1.99
 148  0.000  0.500  0.352-   6 1.96  36 1.96  35 1.99
 149  0.000  0.500  0.435-   6 1.96  36 1.96  39 1.99
 150  0.848  0.375  0.393-  27 1.96  37 1.96  36 1.99
 151  0.152  0.375  0.393-  67 1.96  77 1.96  36 1.99
 152  0.750  0.500  0.458-   8 1.96  38 1.96  37 1.99
 153  0.750  0.500  0.542-   8 1.96  38 1.96  41 2.11
 154  0.098  0.375  0.500-  29 1.96  39 1.96  78 1.99
 155  0.902  0.375  0.500-  29 1.96  39 1.96  38 1.99
 156  1.000  0.500  0.565-  40 1.90  10 1.90  39 2.01
 157  0.000  0.500  0.649-  43 1.82  10 2.02  40 2.02
 158  0.850  0.375  0.607-  40 1.96  31 1.98  41 1.98
 159  0.150  0.375  0.607-  40 1.96  71 1.98  81 1.98
 160  0.751  0.500  0.672-  41 1.87  42 2.10  12 2.10
 161  0.749  0.500  0.756-  42 1.83  12 1.83
 162  0.094  0.375  0.719-  43 1.95  33 1.95  82 2.03
 163  0.906  0.375  0.719-  43 1.95  33 1.95  42 2.04
 164  0.250  0.750  0.245-  44 1.96  54 1.96
 165  0.250  0.750  0.328-  44 1.96  54 1.96  47 1.99
 166  0.598  0.625  0.287-  45 1.96  75 1.96   4 1.99
 167  0.402  0.625  0.287-  45 1.96  75 1.96  44 1.99
 168  0.500  0.750  0.352-  46 1.96  56 1.96  45 1.99
 169  0.500  0.750  0.435-  46 1.96  56 1.96  49 1.99
 170  0.348  0.625  0.393-  47 1.96  77 1.96  46 1.99
 171  0.652  0.625  0.393-   7 1.96  37 1.96  46 1.99
 172  0.250  0.750  0.458-  48 1.96  58 1.96  47 1.99
 173  0.250  0.750  0.542-  48 1.96  58 1.96  51 2.11
 174  0.598  0.625  0.500-  49 1.96  79 1.96   8 1.99
 175  0.402  0.625  0.500-  49 1.96  79 1.96  48 1.99
 176  0.500  0.749  0.565-  60 1.90  50 1.92  49 2.00
 177  0.500  0.751  0.649-  53 1.81  60 2.01  50 2.01
 178  0.350  0.625  0.607-  50 1.96  81 1.98  51 1.98
 179  0.650  0.625  0.607-  50 1.96  41 1.98  11 1.98
 180  0.249  0.750  0.672-  51 1.87  52 2.09  62 2.10
 181  0.251  0.750  0.756-  52 1.83  62 1.84
 182  0.594  0.626  0.719-  53 1.94  83 1.95  12 2.04
 183  0.405  0.627  0.717-  53 1.94  83 1.95  52 2.04
 184  0.250  0.000  0.245-  54 1.96  64 1.96
 185  0.250  0.000  0.328-  54 1.96  64 1.96  57 1.99
 186  0.598  0.875  0.287-  45 1.96  55 1.96  14 1.99
 187  0.402  0.875  0.287-  45 1.96  55 1.96  54 1.99
 188  0.500  0.000  0.352-  56 1.96  66 1.96  55 1.99
 189  0.500  0.000  0.435-  56 1.96  66 1.96  59 1.99
 190  0.348  0.875  0.393-  47 1.96  57 1.96  56 1.99
 191  0.652  0.875  0.393-   7 1.96  17 1.96  56 1.99
 192  0.250  0.000  0.458-  58 1.96  68 1.96  57 1.99
 193  0.250  0.000  0.542-  58 1.96  68 1.96  61 2.11
 194  0.598  0.875  0.500-  49 1.96  59 1.96  18 1.99
 195  0.402  0.875  0.500-  49 1.96  59 1.96  58 1.99
 196  0.500  0.000  0.565-  70 1.90  60 1.90  59 2.00
 197  0.500  0.000  0.649-  63 1.82  60 2.02  70 2.02
 198  0.350  0.875  0.607-  60 1.96  51 1.98  61 1.98
 199  0.650  0.875  0.607-  60 1.96  21 1.98  11 1.98
 200  0.250  0.000  0.672-  61 1.87  62 2.10  72 2.10
 201  0.250  0.000  0.756-  72 1.83  62 1.83
 202  0.594  0.875  0.719-  63 1.95  53 1.95  22 2.04
 203  0.406  0.875  0.719-  63 1.95  53 1.95  62 2.03
 204  0.250  0.250  0.245-  64 1.96  74 1.96
 205  0.250  0.250  0.328-  64 1.96  74 1.96  67 1.99
 206  0.598  0.125  0.287-  55 1.96  65 1.96  24 1.99
 207  0.402  0.125  0.287-  55 1.96  65 1.96  64 1.99
 208  0.500  0.250  0.352-  66 1.96  76 1.96  65 1.99
 209  0.500  0.250  0.435-  66 1.96  76 1.96  69 1.99
 210  0.348  0.125  0.393-  57 1.96  67 1.96  66 1.99
 211  0.652  0.125  0.393-  17 1.96  27 1.96  66 1.99
 212  0.250  0.250  0.458-  68 1.96  78 1.96  67 1.99
 213  0.250  0.250  0.542-  68 1.96  78 1.96  71 2.11
 214  0.598  0.125  0.500-  59 1.96  69 1.96  28 1.99
 215  0.402  0.125  0.500-  59 1.96  69 1.96  68 1.99
 216  0.500  0.251  0.565-  70 1.90  80 1.92  69 2.00
 217  0.500  0.249  0.649-  73 1.81  70 2.01  80 2.01
 218  0.350  0.125  0.607-  70 1.96  71 1.98  61 1.98
 219  0.650  0.125  0.607-  70 1.96  21 1.98  31 1.98
 220  0.249  0.250  0.672-  71 1.87  82 2.09  72 2.10
 221  0.251  0.250  0.756-  82 1.83  72 1.84
 222  0.594  0.125  0.719-  63 1.95  73 1.95  32 2.04
 223  0.406  0.125  0.719-  63 1.95  73 1.95  72 2.03
 224  0.250  0.500  0.245-  44 1.96  74 1.96
 225  0.250  0.500  0.328-  44 1.96  74 1.96  77 1.99
 226  0.598  0.375  0.287-  65 1.96  75 1.96  34 1.99
 227  0.402  0.375  0.287-  65 1.96  75 1.96  74 1.99
 228  0.500  0.500  0.352-  46 1.96  76 1.96  75 1.99
 229  0.500  0.500  0.435-  46 1.96  76 1.96  79 1.99
 230  0.348  0.375  0.393-  67 1.96  77 1.96  76 1.99
 231  0.652  0.375  0.393-  27 1.96  37 1.96  76 1.99
 232  0.250  0.500  0.458-  48 1.96  78 1.96  77 1.99
 233  0.250  0.500  0.542-  48 1.96  78 1.96  81 2.11
 234  0.598  0.375  0.500-  69 1.96  79 1.96  38 1.99
 235  0.402  0.375  0.500-  69 1.96  79 1.96  78 1.99
 236  0.500  0.500  0.566-  50 1.90  80 1.90  79 2.01
 237  0.500  0.500  0.650-  83 1.85  80 2.01  50 2.01
 238  0.350  0.375  0.607-  80 1.96  81 1.98  71 1.98
 239  0.650  0.375  0.607-  80 1.96  41 1.98  31 1.98
 240  0.248  0.500  0.672-  81 1.87  82 2.09  52 2.09
 241  0.254  0.500  0.755-  82 1.84  52 1.84
 242  0.594  0.374  0.719-  73 1.94  83 1.95  42 2.04
 243  0.405  0.373  0.717-  73 1.94  83 1.95  82 2.04


IMPORTANT INFORMATION: All symmetrisations will be switched off!
NOSYMM: (Re-)initialisation of all symmetry stuff for point group C_1.


----------------------------------------------------------------------------------------

                                     Primitive cell                                     

  volume of cell :    4737.1735

  direct lattice vectors                    reciprocal lattice vectors
    13.061198858  0.000000000  0.000000000     0.076562650  0.000000000  0.000000000
     0.000000000 11.845266045  0.000000000     0.000000000  0.084421911  0.000000000
     0.000000000  0.000000000 30.619030317     0.000000000  0.000000000  0.032659427

  length of vectors
    13.061198858 11.845266045 30.619030317     0.076562650  0.084421911  0.032659427

  position of ions in fractional coordinates (direct lattice)
     0.422174210  0.500000014  0.816935649
     0.363692486  0.500000029  0.845679717
     0.485268049  0.499999997  0.789192556
     0.750000000  0.625000000  0.286714362
     0.000000000  0.750000000  0.286714362
     0.000000000  0.625000000  0.393357181
     0.750000000  0.750000000  0.393357181
     0.750000000  0.625000000  0.500000000
     0.000000000  0.750000000  0.500000000
     0.000033946  0.625019717  0.604455476
     0.750024313  0.749950174  0.610708028
     0.749734199  0.625054570  0.720368114
     0.999986548  0.750176710  0.708653413
     0.750000000  0.875000000  0.286714362
     0.000000000  0.000000000  0.286714362
     0.000000000  0.875000000  0.393357181
     0.750000000  0.000000000  0.393357181
     0.750000000  0.875000000  0.500000000
     0.000000000  0.000000000  0.500000000
     0.999904678  0.875017554  0.604502400
     0.749949915  0.999999993  0.610709900
     0.749861386  0.875061500  0.720381139
     0.000245079  0.000000028  0.708656308
     0.750000000  0.125000000  0.286714362
     0.000000000  0.250000000  0.286714362
     0.000000000  0.125000000  0.393357181
     0.750000000  0.250000000  0.393357181
     0.750000000  0.125000000  0.500000000
     0.000000000  0.250000000  0.500000000
     0.999904737  0.124982437  0.604502397
     0.750024361  0.250049783  0.610708023
     0.749861360  0.124938633  0.720381145
     0.999986550  0.249823340  0.708653407
     0.750000000  0.375000000  0.286714362
     0.000000000  0.500000000  0.286714362
     0.000000000  0.375000000  0.393357181
     0.750000000  0.500000000  0.393357181
     0.750000000  0.375000000  0.500000000
     0.000000000  0.500000000  0.500000000
     0.000033982  0.374980283  0.604455472
     0.750120472  0.499999985  0.610766653
     0.749734157  0.374945570  0.720368101
     0.999400432  0.500000012  0.708631114
     0.250000000  0.625000000  0.286714362
     0.500000000  0.750000000  0.286714362
     0.500000000  0.625000000  0.393357181
     0.250000000  0.750000000  0.393357181
     0.250000000  0.625000000  0.500000000
     0.500000000  0.750000000  0.500000000
     0.500028940  0.624088287  0.605122213
     0.249941743  0.750120992  0.610544511
     0.249221138  0.625387424  0.719833952
     0.500283694  0.750157078  0.708113248
     0.250000000  0.875000000  0.286714362
     0.500000000  0.000000000  0.286714362
     0.500000000  0.875000000  0.393357181
     0.250000000  0.000000000  0.393357181
     0.250000000  0.875000000  0.500000000
     0.500000000  0.000000000  0.500000000
     0.500126890  0.874596363  0.604031359
     0.250061292  0.999999971  0.610715597
     0.250380530  0.875065644  0.720406027
     0.500039593  0.000000010  0.708189573
     0.250000000  0.125000000  0.286714362
     0.500000000  0.250000000  0.286714362
     0.500000000  0.125000000  0.393357181
     0.250000000  0.250000000  0.393357181
     0.250000000  0.125000000  0.500000000
     0.500000000  0.250000000  0.500000000
     0.500126905  0.125403636  0.604031347
     0.249941800  0.249878982  0.610544504
     0.250380526  0.124934371  0.720406037
     0.500283664  0.249842934  0.708113245
     0.250000000  0.375000000  0.286714362
     0.500000000  0.500000000  0.286714362
     0.500000000  0.375000000  0.393357181
     0.250000000  0.500000000  0.393357181
     0.250000000  0.375000000  0.500000000
     0.500000000  0.500000000  0.500000000
     0.500028987  0.375911708  0.605122232
     0.249809642  0.499999977  0.610532189
     0.249221157  0.374612585  0.719833931
     0.499095693  0.500000014  0.710519105
     0.750000000  0.750000000  0.244945706
     0.750000000  0.750000000  0.328483017
     0.097917178  0.625000000  0.286714362
     0.902082822  0.625000000  0.286714362
     0.000000000  0.750000000  0.351588525
     0.000000000  0.750000000  0.435125836
     0.847917178  0.625000000  0.393357181
     0.152082822  0.625000000  0.393357181
     0.750000000  0.750000000  0.458231344
     0.750000000  0.750000000  0.541768656
     0.097917178  0.625000000  0.500000000
     0.902082822  0.625000000  0.500000000
     0.999944202  0.750088311  0.565498824
     0.000186856  0.749903655  0.649304260
     0.850163840  0.625079939  0.607181805
     0.149786440  0.625155641  0.606981796
     0.750286641  0.750163418  0.671796865
     0.749812058  0.750017624  0.755693627
     0.093805536  0.624726648  0.719455454
     0.906041856  0.625074716  0.719203654
     0.750000000  0.000000000  0.244945706
     0.750000000  0.000000000  0.328483017
     0.097917178  0.875000000  0.286714362
     0.902082822  0.875000000  0.286714362
     0.000000000  0.000000000  0.351588525
     0.000000000  0.000000000  0.435125836
     0.847917178  0.875000000  0.393357181
     0.152082822  0.875000000  0.393357181
     0.750000000  0.000000000  0.458231344
     0.750000000  0.000000000  0.541768656
     0.097917178  0.875000000  0.500000000
     0.902082822  0.875000000  0.500000000
     0.999964884  0.000000008  0.565512588
     0.000175415  0.000000007  0.649303717
     0.850194910  0.875019761  0.607245484
     0.149915710  0.875148862  0.607180651
     0.750136236  0.999999995  0.671797312
     0.750341497  0.000000067  0.755707752
     0.094009178  0.874920087  0.719242555
     0.906222092  0.874958595  0.719093846
     0.750000000  0.250000000  0.244945706
     0.750000000  0.250000000  0.328483017
     0.097917178  0.125000000  0.286714362
     0.902082822  0.125000000  0.286714362
     0.000000000  0.250000000  0.351588525
     0.000000000  0.250000000  0.435125836
     0.847917178  0.125000000  0.393357181
     0.152082822  0.125000000  0.393357181
     0.750000000  0.250000000  0.458231344
     0.750000000  0.250000000  0.541768656
     0.097917178  0.125000000  0.500000000
     0.902082822  0.125000000  0.500000000
     0.999944204  0.249911683  0.565498823
     0.000186857  0.250096357  0.649304259
     0.850194905  0.124980229  0.607245485
     0.149915706  0.124851133  0.607180647
     0.750286654  0.249836587  0.671796859
     0.749812052  0.249982511  0.755693630
     0.094009172  0.125079943  0.719242556
     0.906222079  0.125041443  0.719093837
     0.750000000  0.500000000  0.244945706
     0.750000000  0.500000000  0.328483017
     0.097917178  0.375000000  0.286714362
     0.902082822  0.375000000  0.286714362
     0.000000000  0.500000000  0.351588525
     0.000000000  0.500000000  0.435125836
     0.847917178  0.375000000  0.393357181
     0.152082822  0.375000000  0.393357181
     0.750000000  0.500000000  0.458231344
     0.750000000  0.500000000  0.541768656
     0.097917178  0.375000000  0.500000000
     0.902082822  0.375000000  0.500000000
     0.999910112  0.499999998  0.565487087
     0.000055214  0.499999996  0.649284193
     0.850163846  0.374920039  0.607181802
     0.149786440  0.374844345  0.606981793
     0.750724905  0.499999996  0.671846282
     0.749146097  0.500000044  0.755662331
     0.093805545  0.375273372  0.719455454
     0.906041852  0.374925319  0.719203655
     0.250000000  0.750000000  0.244945706
     0.250000000  0.750000000  0.328483017
     0.597917178  0.625000000  0.286714362
     0.402082822  0.625000000  0.286714362
     0.500000000  0.750000000  0.351588525
     0.500000000  0.750000000  0.435125836
     0.347917178  0.625000000  0.393357181
     0.652082822  0.625000000  0.393357181
     0.250000000  0.750000000  0.458231344
     0.250000000  0.750000000  0.541768656
     0.597917178  0.625000000  0.500000000
     0.402082822  0.625000000  0.500000000
     0.499944934  0.749170203  0.565478360
     0.500459157  0.750833726  0.648870333
     0.349867195  0.624957608  0.607467150
     0.650137047  0.624919393  0.607372817
     0.248918168  0.750326753  0.671745531
     0.250676301  0.749529963  0.755620006
     0.593941742  0.625918861  0.718510125
     0.405028553  0.627002392  0.717323617
     0.250000000  0.000000000  0.244945706
     0.250000000  0.000000000  0.328483017
     0.597917178  0.875000000  0.286714362
     0.402082822  0.875000000  0.286714362
     0.500000000  0.000000000  0.351588525
     0.500000000  0.000000000  0.435125836
     0.347917178  0.875000000  0.393357181
     0.652082822  0.875000000  0.393357181
     0.250000000  0.000000000  0.458231344
     0.250000000  0.000000000  0.541768656
     0.597917178  0.875000000  0.500000000
     0.402082822  0.875000000  0.500000000
     0.499985443  0.000000000  0.565252507
     0.499965744  0.000000012  0.648909866
     0.349942380  0.874939408  0.607134527
     0.650092080  0.875055644  0.607067549
     0.250080252  0.000000010  0.671906005
     0.249949559  0.000000003  0.755757025
     0.594088826  0.875460531  0.718906567
     0.406070716  0.875118151  0.718945561
     0.250000000  0.250000000  0.244945706
     0.250000000  0.250000000  0.328483017
     0.597917178  0.125000000  0.286714362
     0.402082822  0.125000000  0.286714362
     0.500000000  0.250000000  0.351588525
     0.500000000  0.250000000  0.435125836
     0.347917178  0.125000000  0.393357181
     0.652082822  0.125000000  0.393357181
     0.250000000  0.250000000  0.458231344
     0.250000000  0.250000000  0.541768656
     0.597917178  0.125000000  0.500000000
     0.402082822  0.125000000  0.500000000
     0.499944933  0.250829815  0.565478362
     0.500459150  0.249166256  0.648870327
     0.349942383  0.125060585  0.607134524
     0.650092084  0.124944346  0.607067546
     0.248918155  0.249673254  0.671745523
     0.250676310  0.250470050  0.755620003
     0.594088820  0.124539528  0.718906557
     0.406070709  0.124881896  0.718945558
     0.250000000  0.500000000  0.244945706
     0.250000000  0.500000000  0.328483017
     0.597917178  0.375000000  0.286714362
     0.402082822  0.375000000  0.286714362
     0.500000000  0.500000000  0.351588525
     0.500000000  0.500000000  0.435125836
     0.347917178  0.375000000  0.393357181
     0.652082822  0.375000000  0.393357181
     0.250000000  0.500000000  0.458231344
     0.250000000  0.500000000  0.541768656
     0.597917178  0.375000000  0.500000000
     0.402082822  0.375000000  0.500000000
     0.499952909  0.499999983  0.565706722
     0.500194343  0.500000019  0.650019837
     0.349867197  0.375042378  0.607467156
     0.650137045  0.375080584  0.607372819
     0.247965436  0.500000008  0.671612009
     0.253910964  0.499999981  0.755424268
     0.593941728  0.374081173  0.718510113
     0.405028534  0.372997642  0.717323594

  ion indices of the primitive-cell ions
   primitive index   ion index
                 1           1
                 2           2
                 3           3
                 4           4
                 5           5
                 6           6
                 7           7
                 8           8
                 9           9
                10          10
                11          11
                12          12
                13          13
                14          14
                15          15
                16          16
                17          17
                18          18
                19          19
                20          20
                21          21
                22          22
                23          23
                24          24
                25          25
                26          26
                27          27
                28          28
                29          29
                30          30
                31          31
                32          32
                33          33
                34          34
                35          35
                36          36
                37          37
                38          38
                39          39
                40          40
                41          41
                42          42
                43          43
                44          44
                45          45
                46          46
                47          47
                48          48
                49          49
                50          50
                51          51
                52          52
                53          53
                54          54
                55          55
                56          56
                57          57
                58          58
                59          59
                60          60
                61          61
                62          62
                63          63
                64          64
                65          65
                66          66
                67          67
                68          68
                69          69
                70          70
                71          71
                72          72
                73          73
                74          74
                75          75
                76          76
                77          77
                78          78
                79          79
                80          80
                81          81
                82          82
                83          83
                84          84
                85          85
                86          86
                87          87
                88          88
                89          89
                90          90
                91          91
                92          92
                93          93
                94          94
                95          95
                96          96
                97          97
                98          98
                99          99
               100         100
               101         101
               102         102
               103         103
               104         104
               105         105
               106         106
               107         107
               108         108
               109         109
               110         110
               111         111
               112         112
               113         113
               114         114
               115         115
               116         116
               117         117
               118         118
               119         119
               120         120
               121         121
               122         122
               123         123
               124         124
               125         125
               126         126
               127         127
               128         128
               129         129
               130         130
               131         131
               132         132
               133         133
               134         134
               135         135
               136         136
               137         137
               138         138
               139         139
               140         140
               141         141
               142         142
               143         143
               144         144
               145         145
               146         146
               147         147
               148         148
               149         149
               150         150
               151         151
               152         152
               153         153
               154         154
               155         155
               156         156
               157         157
               158         158
               159         159
               160         160
               161         161
               162         162
               163         163
               164         164
               165         165
               166         166
               167         167
               168         168
               169         169
               170         170
               171         171
               172         172
               173         173
               174         174
               175         175
               176         176
               177         177
               178         178
               179         179
               180         180
               181         181
               182         182
               183         183
               184         184
               185         185
               186         186
               187         187
               188         188
               189         189
               190         190
               191         191
               192         192
               193         193
               194         194
               195         195
               196         196
               197         197
               198         198
               199         199
               200         200
               201         201
               202         202
               203         203
               204         204
               205         205
               206         206
               207         207
               208         208
               209         209
               210         210
               211         211
               212         212
               213         213
               214         214
               215         215
               216         216
               217         217
               218         218
               219         219
               220         220
               221         221
               222         222
               223         223
               224         224
               225         225
               226         226
               227         227
               228         228
               229         229
               230         230
               231         231
               232         232
               233         233
               234         234
               235         235
               236         236
               237         237
               238         238
               239         239
               240         240
               241         241
               242         242
               243         243

----------------------------------------------------------------------------------------



 KPOINTS: pymatgen v2020.8.13 with grid density = 

Automatic generation of k-mesh.
 Grid dimensions read from file:
 generate k-points for:    2    2    1

 Generating k-lattice:

  Cartesian coordinates                     Fractional coordinates (reciprocal lattice)
     0.038281325  0.000000000  0.000000000     0.500000000  0.000000000  0.000000000
     0.000000000  0.042210956  0.000000000     0.000000000  0.500000000  0.000000000
     0.000000000  0.000000000  0.032659427     0.000000000  0.000000000  1.000000000

  Length of vectors
     0.038281325  0.042210956  0.032659427

  Shift w.r.t. Gamma in fractional coordinates (k-lattice)
     0.000000000  0.000000000  0.000000000

 
 Subroutine IBZKPT returns following result:
 ===========================================
 
 Found      4 irreducible k-points:
 
 Following reciprocal coordinates:
            Coordinates               Weight
  0.000000  0.000000  0.000000      1.000000
  0.500000  0.000000  0.000000      1.000000
  0.000000  0.500000  0.000000      1.000000
  0.500000  0.500000  0.000000      1.000000
 
 Following cartesian coordinates:
            Coordinates               Weight
  0.000000  0.000000  0.000000      1.000000
  0.038281  0.000000  0.000000      1.000000
  0.000000  0.042211  0.000000      1.000000
  0.038281  0.042211  0.000000      1.000000
 


--------------------------------------------------------------------------------------------------------




 Dimension of arrays:
   k-points           NKPTS =      4   k-points in BZ     NKDIM =      4   number of bands    NBANDS=   1088
   number of dos      NEDOS =    301   number of ions     NIONS =    243
   non local maximal  LDIM  =      6   non local SUM 2l+1 LMDIM =     18
   total plane-waves  NPLWV = ******
   max r-space proj   IRMAX =      1   max aug-charges    IRDMAX=  21440
   dimension x,y,z NGX =   108 NGY =   96 NGZ =  250
   dimension x,y,z NGXF=   216 NGYF=  192 NGZF=  500
   support grid    NGXF=   216 NGYF=  192 NGZF=  500
   ions per type =               1   2  80 160
   NGX,Y,Z   is equivalent  to a cutoff of  13.75, 13.47, 13.57 a.u.
   NGXF,Y,Z  is equivalent  to a cutoff of  27.49, 26.95, 27.15 a.u.

 SYSTEM =  TiO2                                    
 POSCAR =   C  O Ti  O                             

--------------------------------------------------------------------------------------------------------


  energy-cutoff  :      600.00
  volume of cell :     4737.17
      direct lattice vectors                 reciprocal lattice vectors
    13.061198858  0.000000000  0.000000000     0.076562650  0.000000000  0.000000000
     0.000000000 11.845266045  0.000000000     0.000000000  0.084421911  0.000000000
     0.000000000  0.000000000 30.619030317     0.000000000  0.000000000  0.032659427

  length of vectors
    13.061198858 11.845266045 30.619030317     0.076562650  0.084421911  0.032659427



 k-points in units of 2pi/SCALE and weight: pymatgen v2020.8.13 with grid density = 
   0.00000000  0.00000000  0.00000000       0.250
   0.03828133  0.00000000  0.00000000       0.250
   0.00000000  0.04221096  0.00000000       0.250
   0.03828133  0.04221096  0.00000000       0.250

 k-points in reciprocal lattice and weights: pymatgen v2020.8.13 with grid density = 
   0.00000000  0.00000000  0.00000000       0.250
   0.50000000  0.00000000  0.00000000       0.250
   0.00000000  0.50000000  0.00000000       0.250
   0.50000000  0.50000000  0.00000000       0.250

 position of ions in fractional coordinates (direct lattice) 
   0.42217421  0.50000001  0.81693565
   0.36369249  0.50000003  0.84567972
   0.48526805  0.50000000  0.78919256
   0.75000000  0.62500000  0.28671436
   0.00000000  0.75000000  0.28671436
   0.00000000  0.62500000  0.39335718
   0.75000000  0.75000000  0.39335718
   0.75000000  0.62500000  0.50000000
   0.00000000  0.75000000  0.50000000
   0.00003395  0.62501972  0.60445548
   0.75002431  0.74995017  0.61070803
   0.74973420  0.62505457  0.72036811
   0.99998655  0.75017671  0.70865341
   0.75000000  0.87500000  0.28671436
   0.00000000  0.00000000  0.28671436
   0.00000000  0.87500000  0.39335718
   0.75000000  0.00000000  0.39335718
   0.75000000  0.87500000  0.50000000
   0.00000000  0.00000000  0.50000000
   0.99990468  0.87501755  0.60450240
   0.74994992  0.99999999  0.61070990
   0.74986139  0.87506150  0.72038114
   0.00024508  0.00000003  0.70865631
   0.75000000  0.12500000  0.28671436
   0.00000000  0.25000000  0.28671436
   0.00000000  0.12500000  0.39335718
   0.75000000  0.25000000  0.39335718
   0.75000000  0.12500000  0.50000000
   0.00000000  0.25000000  0.50000000
   0.99990474  0.12498244  0.60450240
   0.75002436  0.25004978  0.61070802
   0.74986136  0.12493863  0.72038114
   0.99998655  0.24982334  0.70865341
   0.75000000  0.37500000  0.28671436
   0.00000000  0.50000000  0.28671436
   0.00000000  0.37500000  0.39335718
   0.75000000  0.50000000  0.39335718
   0.75000000  0.37500000  0.50000000
   0.00000000  0.50000000  0.50000000
   0.00003398  0.37498028  0.60445547
   0.75012047  0.49999998  0.61076665
   0.74973416  0.37494557  0.72036810
   0.99940043  0.50000001  0.70863111
   0.25000000  0.62500000  0.28671436
   0.50000000  0.75000000  0.28671436
   0.50000000  0.62500000  0.39335718
   0.25000000  0.75000000  0.39335718
   0.25000000  0.62500000  0.50000000
   0.50000000  0.75000000  0.50000000
   0.50002894  0.62408829  0.60512221
   0.24994174  0.75012099  0.61054451
   0.24922114  0.62538742  0.71983395
   0.50028369  0.75015708  0.70811325
   0.25000000  0.87500000  0.28671436
   0.50000000  0.00000000  0.28671436
   0.50000000  0.87500000  0.39335718
   0.25000000  0.00000000  0.39335718
   0.25000000  0.87500000  0.50000000
   0.50000000  0.00000000  0.50000000
   0.50012689  0.87459636  0.60403136
   0.25006129  0.99999997  0.61071560
   0.25038053  0.87506564  0.72040603
   0.50003959  0.00000001  0.70818957
   0.25000000  0.12500000  0.28671436
   0.50000000  0.25000000  0.28671436
   0.50000000  0.12500000  0.39335718
   0.25000000  0.25000000  0.39335718
   0.25000000  0.12500000  0.50000000
   0.50000000  0.25000000  0.50000000
   0.50012691  0.12540364  0.60403135
   0.24994180  0.24987898  0.61054450
   0.25038053  0.12493437  0.72040604
   0.50028366  0.24984293  0.70811324
   0.25000000  0.37500000  0.28671436
   0.50000000  0.50000000  0.28671436
   0.50000000  0.37500000  0.39335718
   0.25000000  0.50000000  0.39335718
   0.25000000  0.37500000  0.50000000
   0.50000000  0.50000000  0.50000000
   0.50002899  0.37591171  0.60512223
   0.24980964  0.49999998  0.61053219
   0.24922116  0.37461258  0.71983393
   0.49909569  0.50000001  0.71051911
   0.75000000  0.75000000  0.24494571
   0.75000000  0.75000000  0.32848302
   0.09791718  0.62500000  0.28671436
   0.90208282  0.62500000  0.28671436
   0.00000000  0.75000000  0.35158853
   0.00000000  0.75000000  0.43512584
   0.84791718  0.62500000  0.39335718
   0.15208282  0.62500000  0.39335718
   0.75000000  0.75000000  0.45823134
   0.75000000  0.75000000  0.54176866
   0.09791718  0.62500000  0.50000000
   0.90208282  0.62500000  0.50000000
   0.99994420  0.75008831  0.56549882
   0.00018686  0.74990365  0.64930426
   0.85016384  0.62507994  0.60718181
   0.14978644  0.62515564  0.60698180
   0.75028664  0.75016342  0.67179686
   0.74981206  0.75001762  0.75569363
   0.09380554  0.62472665  0.71945545
   0.90604186  0.62507472  0.71920365
   0.75000000  0.00000000  0.24494571
   0.75000000  0.00000000  0.32848302
   0.09791718  0.87500000  0.28671436
   0.90208282  0.87500000  0.28671436
   0.00000000  0.00000000  0.35158853
   0.00000000  0.00000000  0.43512584
   0.84791718  0.87500000  0.39335718
   0.15208282  0.87500000  0.39335718
   0.75000000  0.00000000  0.45823134
   0.75000000  0.00000000  0.54176866
   0.09791718  0.87500000  0.50000000
   0.90208282  0.87500000  0.50000000
   0.99996488  0.00000001  0.56551259
   0.00017541  0.00000001  0.64930372
   0.85019491  0.87501976  0.60724548
   0.14991571  0.87514886  0.60718065
   0.75013624  0.99999999  0.67179731
   0.75034150  0.00000007  0.75570775
   0.09400918  0.87492009  0.71924256
   0.90622209  0.87495859  0.71909385
   0.75000000  0.25000000  0.24494571
   0.75000000  0.25000000  0.32848302
   0.09791718  0.12500000  0.28671436
   0.90208282  0.12500000  0.28671436
   0.00000000  0.25000000  0.35158853
   0.00000000  0.25000000  0.43512584
   0.84791718  0.12500000  0.39335718
   0.15208282  0.12500000  0.39335718
   0.75000000  0.25000000  0.45823134
   0.75000000  0.25000000  0.54176866
   0.09791718  0.12500000  0.50000000
   0.90208282  0.12500000  0.50000000
   0.99994420  0.24991168  0.56549882
   0.00018686  0.25009636  0.64930426
   0.85019490  0.12498023  0.60724549
   0.14991571  0.12485113  0.60718065
   0.75028665  0.24983659  0.67179686
   0.74981205  0.24998251  0.75569363
   0.09400917  0.12507994  0.71924256
   0.90622208  0.12504144  0.71909384
   0.75000000  0.50000000  0.24494571
   0.75000000  0.50000000  0.32848302
   0.09791718  0.37500000  0.28671436
   0.90208282  0.37500000  0.28671436
   0.00000000  0.50000000  0.35158853
   0.00000000  0.50000000  0.43512584
   0.84791718  0.37500000  0.39335718
   0.15208282  0.37500000  0.39335718
   0.75000000  0.50000000  0.45823134
   0.75000000  0.50000000  0.54176866
   0.09791718  0.37500000  0.50000000
   0.90208282  0.37500000  0.50000000
   0.99991011  0.50000000  0.56548709
   0.00005521  0.50000000  0.64928419
   0.85016385  0.37492004  0.60718180
   0.14978644  0.37484434  0.60698179
   0.75072491  0.50000000  0.67184628
   0.74914610  0.50000004  0.75566233
   0.09380554  0.37527337  0.71945545
   0.90604185  0.37492532  0.71920366
   0.25000000  0.75000000  0.24494571
   0.25000000  0.75000000  0.32848302
   0.59791718  0.62500000  0.28671436
   0.40208282  0.62500000  0.28671436
   0.50000000  0.75000000  0.35158853
   0.50000000  0.75000000  0.43512584
   0.34791718  0.62500000  0.39335718
   0.65208282  0.62500000  0.39335718
   0.25000000  0.75000000  0.45823134
   0.25000000  0.75000000  0.54176866
   0.59791718  0.62500000  0.50000000
   0.40208282  0.62500000  0.50000000
   0.49994493  0.74917020  0.56547836
   0.50045916  0.75083373  0.64887033
   0.34986719  0.62495761  0.60746715
   0.65013705  0.62491939  0.60737282
   0.24891817  0.75032675  0.67174553
   0.25067630  0.74952996  0.75562001
   0.59394174  0.62591886  0.71851012
   0.40502855  0.62700239  0.71732362
   0.25000000  0.00000000  0.24494571
   0.25000000  0.00000000  0.32848302
   0.59791718  0.87500000  0.28671436
   0.40208282  0.87500000  0.28671436
   0.50000000  0.00000000  0.35158853
   0.50000000  0.00000000  0.43512584
   0.34791718  0.87500000  0.39335718
   0.65208282  0.87500000  0.39335718
   0.25000000  0.00000000  0.45823134
   0.25000000  0.00000000  0.54176866
   0.59791718  0.87500000  0.50000000
   0.40208282  0.87500000  0.50000000
   0.49998544  0.00000000  0.56525251
   0.49996574  0.00000001  0.64890987
   0.34994238  0.87493941  0.60713453
   0.65009208  0.87505564  0.60706755
   0.25008025  0.00000001  0.67190601
   0.24994956  0.00000000  0.75575702
   0.59408883  0.87546053  0.71890657
   0.40607072  0.87511815  0.71894556
   0.25000000  0.25000000  0.24494571
   0.25000000  0.25000000  0.32848302
   0.59791718  0.12500000  0.28671436
   0.40208282  0.12500000  0.28671436
   0.50000000  0.25000000  0.35158853
   0.50000000  0.25000000  0.43512584
   0.34791718  0.12500000  0.39335718
   0.65208282  0.12500000  0.39335718
   0.25000000  0.25000000  0.45823134
   0.25000000  0.25000000  0.54176866
   0.59791718  0.12500000  0.50000000
   0.40208282  0.12500000  0.50000000
   0.49994493  0.25082982  0.56547836
   0.50045915  0.24916626  0.64887033
   0.34994238  0.12506059  0.60713452
   0.65009208  0.12494435  0.60706755
   0.24891816  0.24967325  0.67174552
   0.25067631  0.25047005  0.75562000
   0.59408882  0.12453953  0.71890656
   0.40607071  0.12488190  0.71894556
   0.25000000  0.50000000  0.24494571
   0.25000000  0.50000000  0.32848302
   0.59791718  0.37500000  0.28671436
   0.40208282  0.37500000  0.28671436
   0.50000000  0.50000000  0.35158853
   0.50000000  0.50000000  0.43512584
   0.34791718  0.37500000  0.39335718
   0.65208282  0.37500000  0.39335718
   0.25000000  0.50000000  0.45823134
   0.25000000  0.50000000  0.54176866
   0.59791718  0.37500000  0.50000000
   0.40208282  0.37500000  0.50000000
   0.49995291  0.49999998  0.56570672
   0.50019434  0.50000002  0.65001984
   0.34986720  0.37504238  0.60746716
   0.65013705  0.37508058  0.60737282
   0.24796544  0.50000001  0.67161201
   0.25391096  0.49999998  0.75542427
   0.59394173  0.37408117  0.71851011
   0.40502853  0.37299764  0.71732359

 position of ions in cartesian coordinates  (Angst):
   5.51410130  5.92263319 25.01377740
   4.75025988  5.92263337 25.89389290
   6.33818249  5.92263299 24.16431081
   9.79589914  7.40329128  8.77891573
   0.00000000  8.88394953  8.77891573
   0.00000000  7.40329128 12.04421544
   9.79589914  8.88394953 12.04421544
   9.79589914  7.40329128 15.30951516
   0.00000000  8.88394953 15.30951516
   0.00044338  7.40352484 18.50784054
   9.79621670  8.88335933 18.69928761
   9.79242746  7.40393768 22.05697313
  13.06102316  8.88604271 21.69828033
   9.79589914 10.36460779  8.77891573
   0.00000000  0.00000000  8.77891573
   0.00000000 10.36460779 12.04421544
   9.79589914  0.00000000 12.04421544
   9.79589914 10.36460779 15.30951516
   0.00000000  0.00000000 15.30951516
  13.05995384 10.36481572 18.50927731
   9.79524497 11.84526596 18.69934494
   9.79408867 10.36533628 22.05737193
   0.00320103  0.00000034 21.69836897
   9.79589914  1.48065826  8.77891573
   0.00000000  2.96131651  8.77891573
   0.00000000  1.48065826 12.04421544
   9.79589914  2.96131651 12.04421544
   9.79589914  1.48065826 15.30951516
   0.00000000  2.96131651 15.30951516
  13.05995462  1.48045022 18.50927721
   9.79621733  2.96190620 18.69928747
   9.79408834  1.47993135 22.05737211
  13.06102318  2.95922392 21.69828015
   9.79589914  4.44197477  8.77891573
   0.00000000  5.92263302  8.77891573
   0.00000000  4.44197477 12.04421544
   9.79589914  5.92263302 12.04421544
   9.79589914  4.44197477 15.30951516
   0.00000000  5.92263302 15.30951516
   0.00044385  4.44174121 18.50784043
   9.79747265  5.92263284 18.70108268
   9.79242691  4.44133003 22.05697272
  13.05336779  5.92263317 21.69759757
   3.26529971  7.40329128  8.77891573
   6.53059943  8.88394953  8.77891573
   6.53059943  7.40329128 12.04421544
   3.26529971  8.88394953 12.04421544
   3.26529971  7.40329128 15.30951516
   6.53059943  8.88394953 15.30951516
   6.53097742  7.39249179 18.52825539
   3.26453880  8.88538272 18.69428089
   3.25512685  7.40788042 22.04061759
   6.53430481  8.88581016 21.68174099
   3.26529971 10.36460779  8.77891573
   6.53059943  0.00000000  8.77891573
   6.53059943 10.36460779 12.04421544
   3.26529971  0.00000000 12.04421544
   3.26529971 10.36460779 15.30951516
   6.53059943  0.00000000 15.30951516
   6.53225676 10.35982660 18.49485448
   3.26610026 11.84526570 18.69951939
   3.27026989 10.36538536 22.05813400
   6.53111656  0.00000012 21.68407801
   3.26529971  1.48065826  8.77891573
   6.53059943  2.96131651  8.77891573
   6.53059943  1.48065826 12.04421544
   3.26529971  2.96131651 12.04421544
   3.26529971  1.48065826 15.30951516
   6.53059943  2.96131651 15.30951516
   6.53225696  1.48543943 18.49485414
   3.26453955  2.95988302 18.69428067
   3.27026984  1.47988087 22.05813430
   6.53430442  2.95945603 21.68174091
   3.26529971  4.44197477  8.77891573
   6.53059943  5.92263302  8.77891573
   6.53059943  4.44197477 12.04421544
   3.26529971  5.92263302 12.04421544
   3.26529971  4.44197477 15.30951516
   6.53059943  5.92263302 15.30951516
   6.53097803  4.45277420 18.52825596
   3.26281341  5.92263275 18.69390361
   3.25512710  4.43738573 22.04061697
   6.51878810  5.92263319 21.75540603
   9.79589914  8.88394953  7.50000000
   9.79589914  8.88394953 10.05783146
   1.27891573  7.40329128  8.77891573
  11.78228313  7.40329128  8.77891573
   0.00000000  8.88394953 10.76529971
   0.00000000  8.88394953 13.32313117
  11.07481487  7.40329128 12.04421544
   1.98638398  7.40329128 12.04421544
   9.79589914  8.88394953 14.03059943
   9.79589914  8.88394953 16.58843089
   1.27891573  7.40329128 15.30951516
  11.78228313  7.40329128 15.30951516
  13.06047007  8.88499560 17.31502565
   0.00244056  8.88280830 19.88106682
  11.10415898  7.40423817 18.59131811
   1.95639048  7.40513488 18.58519402
   9.79964302  8.88588527 20.56976857
   9.79344440  8.88415829 23.13860608
   1.22521277  7.40005335 22.02902836
  11.83399286  7.40417631 22.02131850
   9.79589914  0.00000000  7.50000000
   9.79589914  0.00000000 10.05783146
   1.27891573 10.36460779  8.77891573
  11.78228313 10.36460779  8.77891573
   0.00000000  0.00000000 10.76529971
   0.00000000  0.00000000 13.32313117
  11.07481487 10.36460779 12.04421544
   1.98638398 10.36460779 12.04421544
   9.79589914  0.00000000 14.03059943
   9.79589914  0.00000000 16.58843089
   1.27891573 10.36460779 15.30951516
  11.78228313 10.36460779 15.30951516
  13.06074020  0.00000009 17.31544707
   0.00229113  0.00000008 19.88105020
  11.10456479 10.36484186 18.59326787
   1.95807890 10.36637110 18.59128276
   9.79767855 11.84526598 20.56978227
   9.80035951  0.00000079 23.13903857
   1.22787256 10.36366120 22.02250961
  11.83634695 10.36411734 22.01795629
   9.79589914  2.96131651  7.50000000
   9.79589914  2.96131651 10.05783146
   1.27891573  1.48065826  8.77891573
  11.78228313  1.48065826  8.77891573
   0.00000000  2.96131651 10.76529971
   0.00000000  2.96131651 13.32313117
  11.07481487  1.48065826 12.04421544
   1.98638398  1.48065826 12.04421544
   9.79589914  2.96131651 14.03059943
   9.79589914  2.96131651 16.58843089
   1.27891573  1.48065826 15.30951516
  11.78228313  1.48065826 15.30951516
  13.06047010  2.96027037 17.31502562
   0.00244058  2.96245788 19.88106678
  11.10456472  1.48042407 18.59326793
   1.95807885  1.47889488 18.59128265
   9.79964319  2.95938084 20.56976839
   9.79344432  2.96110935 23.13860616
   1.22787249  1.48160521 22.02250962
  11.83634678  1.48114916 22.01795600
   9.79589914  5.92263302  7.50000000
   9.79589914  5.92263302 10.05783146
   1.27891573  4.44197477  8.77891573
  11.78228313  4.44197477  8.77891573
   0.00000000  5.92263302 10.76529971
   0.00000000  5.92263302 13.32313117
  11.07481487  4.44197477 12.04421544
   1.98638398  4.44197477 12.04421544
   9.79589914  5.92263302 14.03059943
   9.79589914  5.92263302 16.58843089
   1.27891573  4.44197477 15.30951516
  11.78228313  4.44197477 15.30951516
  13.06002481  5.92263299 17.31466626
   0.00072116  5.92263298 19.88045240
  11.10415906  4.44102760 18.59131800
   1.95639048  4.44013099 18.58519391
   9.80536727  5.92263297 20.57128167
   9.78474615  5.92263355 23.13764782
   1.22521288  4.44521293 22.02902835
  11.83399280  4.44109015 22.02131852
   3.26529971  8.88394953  7.50000000
   3.26529971  8.88394953 10.05783146
   7.80951516  7.40329128  8.77891573
   5.25168370  7.40329128  8.77891573
   6.53059943  8.88394953 10.76529971
   6.53059943  8.88394953 13.32313117
   4.54421544  7.40329128 12.04421544
   8.51698341  7.40329128 12.04421544
   3.26529971  8.88394953 14.03059943
   3.26529971  8.88394953 16.58843089
   7.80951516  7.40329128 15.30951516
   5.25168370  7.40329128 15.30951516
   6.52988021  8.87412037 17.31439905
   6.53659657  8.89382524 19.86778039
   4.56968500  7.40278913 18.60005508
   8.49156925  7.40233647 18.59716670
   3.25116969  8.88782001 20.56819678
   3.27413301  8.87838182 23.13635186
   7.75759120  7.41417544 22.00008329
   5.29015848  7.42701014 21.96375357
   3.26529971  0.00000000  7.50000000
[...]
      9.79409      1.47993     22.05737        -0.001962     -0.002385      0.004479
     13.06102      2.95922     21.69828        -0.000391      0.000677      0.002400
      9.79590      4.44197      8.77892        -0.000563      0.000009     -3.488014
      0.00000      5.92263      8.77892        -0.000497      0.000064      2.771019
      0.00000      4.44197     12.04422        -0.002918     -0.000016      0.518290
      9.79590      5.92263     12.04422        -0.001673     -0.000014     -0.706712
      9.79590      4.44197     15.30952        -0.011316      0.005462      0.671027
      0.00000      5.92263     15.30952        -0.009612     -0.000004     -0.705059
      0.00044      4.44174     18.50784        -0.000100     -0.001479      0.001064
      9.79747      5.92263     18.70108        -0.001022     -0.000015     -0.000911
      9.79243      4.44133     22.05697         0.003363     -0.002211     -0.000291
     13.05337      5.92263     21.69760        -0.000568      0.000007      0.003279
      3.26530      7.40329      8.77892         0.000579      0.000160     -3.489275
      6.53060      8.88395      8.77892         0.000500      0.000334      2.772961
      6.53060      7.40329     12.04422         0.002818      0.005508      0.523382
      3.26530      8.88395     12.04422         0.002111      0.000911     -0.716443
      3.26530      7.40329     15.30952         0.011956      0.003736      0.635442
      6.53060      8.88395     15.30952         0.006510     -0.016277     -0.650631
      6.53098      7.39249     18.52826         0.000738     -0.001603      0.003941
      3.26454      8.88538     18.69428         0.000227     -0.000279      0.003717
      3.25513      7.40788     22.04062        -0.005658      0.006847      0.003435
      6.53430      8.88581     21.68174        -0.002195      0.006040      0.005966
      3.26530     10.36461      8.77892         0.000680      0.000321     -3.489025
      6.53060      0.00000      8.77892         0.000446      0.000012      2.773282
      6.53060     10.36461     12.04422         0.002540      0.002132      0.526545
      3.26530      0.00000     12.04422         0.002469      0.000027     -0.715172
      3.26530     10.36461     15.30952         0.007608      0.019588      0.650891
      6.53060      0.00000     15.30952         0.004424     -0.000022     -0.737646
      6.53226     10.35983     18.49485        -0.000104     -0.001264      0.001410
      3.26610     11.84527     18.69952        -0.000100      0.000004      0.004997
      3.27027     10.36539     22.05813         0.001449      0.005307      0.005351
      6.53112      0.00000     21.68408        -0.001222     -0.000025      0.000096
      3.26530      1.48066      8.77892         0.000591     -0.000221     -3.489090
      6.53060      2.96132      8.77892         0.000454     -0.000315      2.773065
      6.53060      1.48066     12.04422         0.002540     -0.002113      0.526472
      3.26530      2.96132     12.04422         0.002061     -0.000875     -0.716461
      3.26530      1.48066     15.30952         0.007649     -0.019594      0.650891
      6.53060      2.96132     15.30952         0.006460      0.016259     -0.650578
      6.53226      1.48544     18.49485        -0.000132      0.001295      0.001402
      3.26454      2.95988     18.69428         0.000209      0.000316      0.003721
      3.27027      1.47988     22.05813         0.001486     -0.005312      0.005336
      6.53430      2.95946     21.68174        -0.002267     -0.005964      0.005926
      3.26530      4.44197      8.77892         0.000598     -0.000276     -3.489279
      6.53060      5.92263      8.77892         0.000566     -0.000008      2.772550
      6.53060      4.44197     12.04422         0.002811     -0.005500      0.523446
      3.26530      5.92263     12.04422         0.001769     -0.000026     -0.717683
      3.26530      4.44197     15.30952         0.011989     -0.003727      0.635432
      6.53060      5.92263     15.30952         0.008714     -0.000002     -0.657634
      6.53098      4.45277     18.52826         0.000718      0.001604      0.004012
      3.26281      5.92263     18.69390         0.000294      0.000010     -0.000378
      3.25513      4.43739     22.04062        -0.005731     -0.006879      0.003437
      6.51879      5.92263     21.75541        -0.001335     -0.000004     -0.003787
      9.79590      8.88395      7.50000         0.000111     -0.000060      2.015554
      9.79590      8.88395     10.05783         0.000281     -0.000059      1.674163
      1.27892      7.40329      8.77892        -1.788193     -0.000079     -0.746604
     11.78228      7.40329      8.77892         1.789032     -0.000046     -0.746792
      0.00000      8.88395     10.76530         0.000414     -0.000062     -1.329696
      0.00000      8.88395     13.32313         0.000782     -0.000005     -0.123083
     11.07481      7.40329     12.04422         0.423797      0.000012      0.048925
      1.98638      7.40329     12.04422        -0.420640     -0.000303      0.050187
      9.79590      8.88395     14.03060         0.001469      0.000985     -0.102203
      9.79590      8.88395     16.58843         0.003897     -0.000959      0.002173
      1.27892      7.40329     15.30952        -0.454089     -0.000038      0.094339
     11.78228      7.40329     15.30952         0.468383      0.000962      0.090824
     13.06047      8.88500     17.31503         0.000546      0.000132     -0.000321
      0.00244      8.88281     19.88107         0.000220      0.002325      0.002655
     11.10416      7.40424     18.59132        -0.002579     -0.000229      0.004035
      1.95639      7.40513     18.58519         0.003794     -0.001225      0.004096
      9.79964      8.88589     20.56977        -0.000098     -0.001031      0.001949
      9.79344      8.88416     23.13861        -0.000761     -0.003558     -0.001394
      1.22521      7.40005     22.02903         0.002070     -0.001210      0.000624
     11.83399      7.40418     22.02132        -0.003531     -0.000185     -0.000264
      9.79590      0.00000      7.50000         0.000127     -0.000024      2.015607
      9.79590      0.00000     10.05783         0.000323     -0.000004      1.674202
      1.27892     10.36461      8.77892        -1.788284     -0.000025     -0.746614
     11.78228     10.36461      8.77892         1.789028     -0.000049     -0.746763
      0.00000      0.00000     10.76530         0.000415      0.000023     -1.329717
      0.00000      0.00000     13.32313         0.000742     -0.000013     -0.122462
     11.07481     10.36461     12.04422         0.423754     -0.000067      0.049014
      1.98638     10.36461     12.04422        -0.420831     -0.000333      0.050060
      9.79590      0.00000     14.03060         0.000921     -0.000006     -0.101439
      9.79590      0.00000     16.58843         0.009629      0.000017     -0.005596
      1.27892     10.36461     15.30952        -0.457139     -0.000749      0.092484
     11.78228     10.36461     15.30952         0.466353      0.000647      0.090559
     13.06074      0.00000     17.31545         0.000590     -0.000003     -0.002008
      0.00229      0.00000     19.88105         0.000315      0.000001      0.003312
     11.10456     10.36484     18.59327        -0.000992      0.000482      0.000442
      1.95808     10.36637     18.59128         0.000932      0.001344     -0.000316
      9.79768     11.84527     20.56978         0.002068      0.000003      0.001834
      9.80036      0.00000     23.13904        -0.002800     -0.000015     -0.003297
      1.22787     10.36366     22.02251        -0.001092      0.000648      0.001052
     11.83635     10.36412     22.01796        -0.001306     -0.000467      0.001198
      9.79590      2.96132      7.50000         0.000071      0.000037      2.015542
      9.79590      2.96132     10.05783         0.000286      0.000037      1.674192
      1.27892      1.48066      8.77892        -1.788197      0.000013     -0.746646
     11.78228      1.48066      8.77892         1.789097      0.000020     -0.746758
      0.00000      2.96132     10.76530         0.000411      0.000043     -1.329691
      0.00000      2.96132     13.32313         0.000799      0.000001     -0.123074
     11.07481      1.48066     12.04422         0.423771      0.000036      0.049021
      1.98638      1.48066     12.04422        -0.420854      0.000342      0.050035
      9.79590      2.96132     14.03060         0.001450     -0.000980     -0.102196
      9.79590      2.96132     16.58843         0.003888      0.000968      0.002220
      1.27892      1.48066     15.30952        -0.457104      0.000720      0.092479
     11.78228      1.48066     15.30952         0.466357     -0.000661      0.090566
     13.06047      2.96027     17.31503         0.000539     -0.000131     -0.000288
      0.00244      2.96246     19.88107         0.000191     -0.002311      0.002683
     11.10456      1.48042     18.59327        -0.000979     -0.000463      0.000438
      1.95808      1.47889     18.59128         0.000906     -0.001346     -0.000313
      9.79964      2.95938     20.56977        -0.000088      0.001006      0.001916
      9.79344      2.96111     23.13861        -0.000736      0.003548     -0.001431
      1.22787      1.48161     22.02251        -0.001087     -0.000616      0.001031
     11.83635      1.48115     22.01796        -0.001299      0.000506      0.001187
      9.79590      5.92263      7.50000         0.000107      0.000013      2.015519
      9.79590      5.92263     10.05783         0.000271     -0.000005      1.674048
      1.27892      4.44197      8.77892        -1.788160      0.000060     -0.746634
     11.78228      4.44197      8.77892         1.789055      0.000036     -0.746807
      0.00000      5.92263     10.76530         0.000419     -0.000001     -1.329680
      0.00000      5.92263     13.32313         0.000885      0.000002     -0.123237
     11.07481      4.44197     12.04422         0.423799      0.000002      0.048955
      1.98638      4.44197     12.04422        -0.420605      0.000287      0.050184
      9.79590      5.92263     14.03060         0.002261      0.000001     -0.103340
      9.79590      5.92263     16.58843         0.002513     -0.000022      0.004645
      1.27892      4.44197     15.30952        -0.454082      0.000068      0.094340
     11.78228      4.44197     15.30952         0.468385     -0.000941      0.090835
     13.06002      5.92263     17.31467         0.000437     -0.000004      0.000263
      0.00072      5.92263     19.88045         0.001017     -0.000007      0.000743
     11.10416      4.44103     18.59132        -0.002577      0.000203      0.004024
      1.95639      4.44013     18.58519         0.003786      0.001212      0.004101
      9.80537      5.92263     20.57128        -0.003874     -0.000002      0.001888
      9.78475      5.92263     23.13765        -0.001368      0.000001      0.000313
      1.22521      4.44521     22.02903         0.002069      0.001236      0.000609
     11.83399      4.44109     22.02132        -0.003529      0.000155     -0.000273
      3.26530      8.88395      7.50000        -0.000142     -0.000093      2.016326
      3.26530      8.88395     10.05783        -0.000308     -0.000229      1.676722
      7.80952      7.40329      8.77892        -1.788505     -0.000187     -0.747097
      5.25168      7.40329      8.77892         1.787581     -0.000171     -0.746935
      6.53060      8.88395     10.76530        -0.000400     -0.001144     -1.333337
      6.53060      8.88395     13.32313        -0.000932     -0.002802     -0.137737
      4.54422      7.40329     12.04422         0.417853     -0.000579      0.049771
      8.51698      7.40329     12.04422        -0.421118     -0.000225      0.048598
      3.26530      8.88395     14.03060        -0.001449     -0.004682     -0.088813
      3.26530      8.88395     16.58843        -0.000657     -0.004412      0.010076
      7.80952      7.40329     15.30952        -0.459040     -0.014931      0.084324
      5.25168      7.40329     15.30952         0.443262     -0.015642      0.085338
      6.52988      8.87412     17.31440        -0.000041      0.004538      0.003161
      6.53660      8.89383     19.86778         0.000192     -0.004745     -0.003700
      4.56969      7.40279     18.60006         0.001608      0.002046      0.001634
      8.49157      7.40234     18.59717        -0.002110      0.002072      0.001360
      3.25117      8.88782     20.56820        -0.001335     -0.001570     -0.001862
      3.27413      8.87838     23.13635         0.000102     -0.006291     -0.001638
      7.75759      7.41418     22.00008        -0.002877     -0.002444      0.002315
      5.29016      7.42701     21.96375         0.003451     -0.001133      0.001288
      3.26530      0.00000      7.50000        -0.000124     -0.000002      2.016293
      3.26530      0.00000     10.05783        -0.000341      0.000034      1.676204
      7.80952     10.36461      8.77892        -1.788425     -0.000171     -0.747105
      5.25168     10.36461      8.77892         1.787655     -0.000147     -0.746936
      6.53060      0.00000     10.76530        -0.000442     -0.000016     -1.334198
      6.53060      0.00000     13.32313        -0.000743     -0.000010     -0.144535
      4.54422     10.36461     12.04422         0.416978     -0.000417      0.049575
      8.51698     10.36461     12.04422        -0.419997     -0.000145      0.048567
      3.26530      0.00000     14.03060        -0.001271     -0.000007     -0.091590
      3.26530      0.00000     16.58843        -0.000111     -0.000006     -0.002524
      7.80952     10.36461     15.30952        -0.455069     -0.005445      0.090373
      5.25168     10.36461     15.30952         0.445262     -0.006073      0.090210
      6.53041      0.00000     17.30748        -0.000273     -0.000010      0.002190
      6.53015      0.00000     19.86899         0.000168      0.000010     -0.002629
      4.57067     10.36389     18.58987         0.000325      0.000448      0.001477
      8.49098     10.36527     18.58782         0.000192     -0.000016      0.001704
      3.26635      0.00000     20.57311        -0.002593     -0.000031     -0.005259
      3.26464      0.00000     23.14055         0.001895     -0.000017     -0.004792
      7.75951     10.37006     22.01222        -0.001657      0.000910      0.002589
      5.30377     10.36601     22.01342         0.002624      0.001507      0.001606
      3.26530      2.96132      7.50000        -0.000109      0.000085      2.016321
      3.26530      2.96132     10.05783        -0.000305      0.000212      1.676699
      7.80952      1.48066      8.77892        -1.788483      0.000122     -0.747078
      5.25168      1.48066      8.77892         1.787541      0.000139     -0.746947
      6.53060      2.96132     10.76530        -0.000438      0.001115     -1.333317
      6.53060      2.96132     13.32313        -0.000941      0.002818     -0.137743
      4.54422      1.48066     12.04422         0.416991      0.000416      0.049567
      8.51698      1.48066     12.04422        -0.420018      0.000117      0.048569
      3.26530      2.96132     14.03060        -0.001432      0.004691     -0.088821
      3.26530      2.96132     16.58843        -0.000652      0.004420      0.010070
      7.80952      1.48066     15.30952        -0.455094      0.005435      0.090394
      5.25168      1.48066     15.30952         0.445242      0.006070      0.090205
      6.52988      2.97115     17.31440        -0.000020     -0.004533      0.003182
      6.53660      2.95144     19.86778         0.000190      0.004747     -0.003685
      4.57067      1.48138     18.58987         0.000333     -0.000455      0.001468
      8.49098      1.48000     18.58782         0.000190      0.000034      0.001698
      3.25117      2.95745     20.56820        -0.001311      0.001613     -0.001857
      3.27413      2.96688     23.13635         0.000087      0.006314     -0.001624
      7.75951      1.47520     22.01222        -0.001671     -0.000937      0.002574
      5.30377      1.47926     22.01342         0.002617     -0.001501      0.001588
      3.26530      5.92263      7.50000        -0.000134     -0.000031      2.016313
      3.26530      5.92263     10.05783        -0.000299      0.000004      1.677055
      7.80952      4.44197      8.77892        -1.788518      0.000216     -0.747094
      5.25168      4.44197      8.77892         1.787559      0.000197     -0.746948
      6.53060      5.92263     10.76530        -0.000410      0.000033     -1.332059
      6.53060      5.92263     13.32313        -0.001037      0.000006     -0.116706
      4.54422      4.44197     12.04422         0.417831      0.000581      0.049758
      8.51698      4.44197     12.04422        -0.421108      0.000265      0.048594
      3.26530      5.92263     14.03060        -0.002338     -0.000006     -0.086957
      3.26530      5.92263     16.58843         0.001486     -0.000019      0.007732
      7.80952      4.44197     15.30952        -0.459045      0.014959      0.084361
      5.25168      4.44197     15.30952         0.443253      0.015648      0.085358
      6.52998      5.92263     17.32139        -0.000141     -0.000004      0.006411
      6.53314      5.92263     19.90298        -0.001002     -0.000024      0.005687
      4.56969      4.44248     18.60006         0.001625     -0.002056      0.001636
      8.49157      4.44293     18.59717        -0.002114     -0.002082      0.001366
      3.23873      5.92263     20.56411         0.004093     -0.000005      0.001438
      3.31638      5.92263     23.13036         0.002937     -0.000018      0.001383
      7.75759      4.43109     22.00008        -0.002892      0.002448      0.002308
      5.29016      4.41826     21.96375         0.003461      0.001107      0.001294
 -----------------------------------------------------------------------------------
    total drift:                                0.002711      0.000037     -0.073322


--------------------------------------------------------------------------------------------------------



  FREE ENERGIE OF THE ION-ELECTRON SYSTEM (eV)
  ---------------------------------------------------
  free  energy   TOTEN  =     -1759.48419443 eV

  energy  without entropy=    -1759.48419443  energy(sigma->0) =    -1759.48419443



--------------------------------------------------------------------------------------------------------


    POTLOK:  cpu time      1.2860: real time      1.2865


--------------------------------------------------------------------------------------------------------


     LOOP+:  cpu time    836.8121: real time    837.3627
    4ORBIT:  cpu time      0.0000: real time      0.0000

 total amount of memory used by VASP MPI-rank0   179294. kBytes
=======================================================================

   base      :      30000. kBytes
   nonl-proj :      61424. kBytes
   fftplans  :       7949. kBytes
   grid      :      13664. kBytes
   one-center:        248. kBytes
   wavefun   :      66009. kBytes

  
  
 General timing and accounting informations for this job:
 ========================================================
  
                  Total CPU time used (sec):      922.605
                            User time (sec):      909.664
                          System time (sec):       12.942
                         Elapsed time (sec):      936.509
  
                   Maximum memory used (kb):      646104.
                   Average memory used (kb):          N/A
  
                          Minor page faults:      1141032
                          Major page faults:          729
                 Voluntary context switches:        11119
