 vasp.6.3.0 20Jan22 (build Apr  1 2022 16:44:48) complex                         
 executed on        HPECrayEX_GCC date 2023.03.11  19:01:14
 running  768 mpi-ranks, with    1 threads/rank
 distrk:  each k-point on  768 cores,    1 groups
 distr:  one band on NCORE=   8 cores,   96 groups


--------------------------------------------------------------------------------------------------------


 INCAR:
   SYSTEM = MgO-rocksalt
   ISMEAR = 0
   SIGMA = 0.05
   EDIFF = 1E-6
   ALGO = ALL
   ISTART = 0
   IBRION = -1
   NSW = 0
   ISYM = 0
   DIPOL = 0.5 0.5 0.5
   IDIPOL = 3
   LDIPOL = .TRUE.
   GGA = PE
   IVDW = 1
   VDW_C6 = 1.23 0.70 0.63 0.70
   VDW_R0 = 1.397 1.342 1.243 1.342
   ENCUT = 600
   PREC = Accurate
   LASPH = .TRUE.
   LREAL = .FALSE.
   ISPIN = 1
   NELM = 200
   NELMIN = 8
   NCORE = 8
   KPAR = 1
   LWAVE = .FALSE.
   LCHARG = .FALSE.

 POTCAR:    PAW_PBE N 08Apr2002                   
 POTCAR:    PAW_PBE O 08Apr2002                   
 POTCAR:    PAW_PBE Mg_pv 13Apr2007               
 POTCAR:    PAW_PBE O 08Apr2002                   
 POTCAR:    PAW_PBE N 08Apr2002                   
   SHA256 =  e053789ff3a61a86a1b75d8a110fcc91f86041011e7b0817c7c99e4e8a6349d7 N/POTCAR              
   COPYR  = (c) Copyright 08Apr2002 Georg Kresse                                                    
   COPYR  = This file is part of the software VASP. Any use, copying, and all other rights are regul
   COPYR  = If you do not have a valid VASP license, you may not use, copy or distribute this file. 
   VRHFIN =N: s2p3                                                                                  
   LEXCH  = PE                                                                                      
   EATOM  =   264.5486 eV,   19.4438 Ry                                                             
                                                                                                    
   TITEL  = PAW_PBE N 08Apr2002                                                                     
   LULTRA =        F    use ultrasoft PP ?                                                          
   IUNSCR =        1    unscreen: 0-lin 1-nonlin 2-no                                               
   RPACOR =    1.200    partial core radius                                                         
   POMASS =   14.001; ZVAL   =    5.000    mass and valenz                                          
   RCORE  =    1.500    outmost cutoff radius                                                       
   RWIGS  =    1.400; RWIGS  =    0.741    wigner-seitz radius (au A)                               
   ENMAX  =  400.000; ENMIN  =  300.000 eV                                                          
   ICORE  =        2    local potential                                                             
   LCOR   =        T    correct aug charges                                                         
   LPAW   =        T    paw PP                                                                      
   EAUG   =  627.112                                                                                
   DEXC   =    0.000                                                                                
   RMAX   =    1.529    core radius for proj-oper                                                   
   RAUG   =    1.300    factor for augmentation sphere                                              
   RDEP   =    1.514    radius for radial grids                                                     
   RDEPT  =    1.338    core radius for aug-charge                                                  
                                                                                                    
   Atomic configuration                                                                             
    4 entries                                                                                       
     n  l   j            E        occ.                                                              
     1  0  0.50      -384.7179   2.0000                                                             
     2  0  0.50       -18.5828   2.0000                                                             
     2  1  0.50        -7.0898   3.0000                                                             
     3  2  1.50        -6.8029   0.0000                                                             
   Description                                                                                      
     l       E           TYP  RCUT    TYP  RCUT                                                     
     0    -18.5828119     23  1.200                                                                 
     0    -13.5018863     23  1.200                                                                 
     1     -7.0897853     23  1.500                                                                 
     1      9.5240782     23  1.500                                                                 
     2     -6.8029130      7  1.500                                                                 
  local pseudopotential read in
  partial core-charges read in
  partial kinetic energy density read in
  atomic valenz-charges read in
  non local Contribution for L=           0  read in
    real space projection operators read in
  non local Contribution for L=           0  read in
    real space projection operators read in
  non local Contribution for L=           1  read in
    real space projection operators read in
  non local Contribution for L=           1  read in
    real space projection operators read in
    PAW grid and wavefunctions read in

   number of l-projection  operators is LMAX  =           4
   number of lm-projection operators is LMMAX =           8

 POTCAR:    PAW_PBE O 08Apr2002                   
   SHA256 =  818f92134a0a090dccd8ba1447fa70422a3b330e708bb4f08108d8ae51209ddf O/POTCAR              
   COPYR  = (c) Copyright 08Apr2002 Georg Kresse                                                    
   COPYR  = This file is part of the software VASP. Any use, copying, and all other rights are regul
   COPYR  = If you do not have a valid VASP license, you may not use, copy or distribute this file. 
   VRHFIN =O: s2p4                                                                                  
   LEXCH  = PE                                                                                      
   EATOM  =   432.3788 eV,   31.7789 Ry                                                             
                                                                                                    
   TITEL  = PAW_PBE O 08Apr2002                                                                     
   LULTRA =        F    use ultrasoft PP ?                                                          
   IUNSCR =        1    unscreen: 0-lin 1-nonlin 2-no                                               
   RPACOR =    1.200    partial core radius                                                         
   POMASS =   16.000; ZVAL   =    6.000    mass and valenz                                          
   RCORE  =    1.520    outmost cutoff radius                                                       
   RWIGS  =    1.550; RWIGS  =    0.820    wigner-seitz radius (au A)                               
   ENMAX  =  400.000; ENMIN  =  300.000 eV                                                          
   ICORE  =        2    local potential                                                             
   LCOR   =        T    correct aug charges                                                         
   LPAW   =        T    paw PP                                                                      
   EAUG   =  605.392                                                                                
   DEXC   =    0.000                                                                                
   RMAX   =    1.553    core radius for proj-oper                                                   
   RAUG   =    1.300    factor for augmentation sphere                                              
   RDEP   =    1.550    radius for radial grids                                                     
   RDEPT  =    1.329    core radius for aug-charge                                                  
                                                                                                    
   Atomic configuration                                                                             
    4 entries                                                                                       
     n  l   j            E        occ.                                                              
     1  0  0.50      -514.6923   2.0000                                                             
     2  0  0.50       -23.9615   2.0000                                                             
     2  1  0.50        -9.0305   4.0000                                                             
     3  2  1.50        -9.5241   0.0000                                                             
   Description                                                                                      
     l       E           TYP  RCUT    TYP  RCUT                                                     
     0    -23.9615318     23  1.200                                                                 
     0     -9.5240782     23  1.200                                                                 
     1     -9.0304911     23  1.520                                                                 
     1      8.1634956     23  1.520                                                                 
     2     -9.5240782      7  1.500                                                                 
  local pseudopotential read in
  partial core-charges read in
  partial kinetic energy density read in
  kinetic energy density of atom read in
  atomic valenz-charges read in
  non local Contribution for L=           0  read in
    real space projection operators read in
  non local Contribution for L=           0  read in
    real space projection operators read in
  non local Contribution for L=           1  read in
    real space projection operators read in
  non local Contribution for L=           1  read in
    real space projection operators read in
    PAW grid and wavefunctions read in

   number of l-projection  operators is LMAX  =           4
   number of lm-projection operators is LMMAX =           8

 POTCAR:    PAW_PBE Mg_pv 13Apr2007               
   SHA256 =  f474ac0dd33840b9ae76c01d57fea79fdf77cdfbb07d5ade72c65f83c709b62b Mg_pv/POTCAR          
   COPYR  = (c) Copyright 13Apr2007 Georg Kresse                                                    
   COPYR  = This file is part of the software VASP. Any use, copying, and all other rights are regul
   COPYR  = If you do not have a valid VASP license, you may not use, copy or distribute this file. 
   VRHFIN =Mg: p6s2                                                                                 
   LEXCH  = PE                                                                                      
   EATOM  =  1056.7344 eV,   77.6678 Ry                                                             
                                                                                                    
   TITEL  = PAW_PBE Mg_pv 13Apr2007                                                                 
   LULTRA =        F    use ultrasoft PP ?                                                          
   IUNSCR =        1    unscreen: 0-lin 1-nonlin 2-no                                               
   RPACOR =    1.500    partial core radius                                                         
   POMASS =   24.305; ZVAL   =    8.000    mass and valenz                                          
   RCORE  =    2.000    outmost cutoff radius                                                       
   RWIGS  =    2.000; RWIGS  =    1.058    wigner-seitz radius (au A)                               
   ENMAX  =  403.929; ENMIN  =  302.947 eV                                                          
   RCLOC  =    1.506    cutoff for local pot                                                        
   LCOR   =        T    correct aug charges                                                         
   LPAW   =        T    paw PP                                                                      
   EAUG   =  758.780                                                                                
   DEXC   =    0.000                                                                                
   RMAX   =    2.045    core radius for proj-oper                                                   
   RAUG   =    1.300    factor for augmentation sphere                                              
   RDEP   =    2.025    radius for radial grids                                                     
   RDEPT  =    1.557    core radius for aug-charge                                                  
                                                                                                    
   Atomic configuration                                                                             
    5 entries                                                                                       
     n  l   j            E        occ.                                                              
     1  0  0.50     -1259.6230   2.0000                                                             
     2  0  0.50       -79.8442   2.0000                                                             
     2  1  1.50       -46.6121   6.0000                                                             
     3  0  0.50        -4.7055   2.0000                                                             
     3  2  1.50        -1.3606   0.0000                                                             
   Description                                                                                      
     l       E           TYP  RCUT    TYP  RCUT                                                     
     1    -46.6121073     23  1.600                                                                 
     1      2.7211652     23  1.600                                                                 
     0     -4.7054661     23  2.000                                                                 
     0     61.2262170     23  2.000                                                                 
     2     -1.3605826     23  2.000                                                                 
  local pseudopotential read in
  partial core-charges read in
  partial kinetic energy density read in
  atomic valenz-charges read in
  non local Contribution for L=           1  read in
    real space projection operators read in
  non local Contribution for L=           1  read in
    real space projection operators read in
  non local Contribution for L=           0  read in
    real space projection operators read in
  non local Contribution for L=           0  read in
    real space projection operators read in
  non local Contribution for L=           2  read in
    real space projection operators read in
    PAW grid and wavefunctions read in

   number of l-projection  operators is LMAX  =           5
   number of lm-projection operators is LMMAX =          13

 POTCAR:    PAW_PBE O 08Apr2002                   
   SHA256 =  818f92134a0a090dccd8ba1447fa70422a3b330e708bb4f08108d8ae51209ddf O/POTCAR              
   COPYR  = (c) Copyright 08Apr2002 Georg Kresse                                                    
   COPYR  = This file is part of the software VASP. Any use, copying, and all other rights are regul
   COPYR  = If you do not have a valid VASP license, you may not use, copy or distribute this file. 
   VRHFIN =O: s2p4                                                                                  
   LEXCH  = PE                                                                                      
   EATOM  =   432.3788 eV,   31.7789 Ry                                                             
                                                                                                    
   TITEL  = PAW_PBE O 08Apr2002                                                                     
   LULTRA =        F    use ultrasoft PP ?                                                          
   IUNSCR =        1    unscreen: 0-lin 1-nonlin 2-no                                               
   RPACOR =    1.200    partial core radius                                                         
   POMASS =   16.000; ZVAL   =    6.000    mass and valenz                                          
   RCORE  =    1.520    outmost cutoff radius                                                       
   RWIGS  =    1.550; RWIGS  =    0.820    wigner-seitz radius (au A)                               
   ENMAX  =  400.000; ENMIN  =  300.000 eV                                                          
   ICORE  =        2    local potential                                                             
   LCOR   =        T    correct aug charges                                                         
   LPAW   =        T    paw PP                                                                      
   EAUG   =  605.392                                                                                
   DEXC   =    0.000                                                                                
   RMAX   =    1.553    core radius for proj-oper                                                   
   RAUG   =    1.300    factor for augmentation sphere                                              
   RDEP   =    1.550    radius for radial grids                                                     
   RDEPT  =    1.329    core radius for aug-charge                                                  
                                                                                                    
   Atomic configuration                                                                             
    4 entries                                                                                       
     n  l   j            E        occ.                                                              
     1  0  0.50      -514.6923   2.0000                                                             
     2  0  0.50       -23.9615   2.0000                                                             
     2  1  0.50        -9.0305   4.0000                                                             
     3  2  1.50        -9.5241   0.0000                                                             
   Description                                                                                      
     l       E           TYP  RCUT    TYP  RCUT                                                     
     0    -23.9615318     23  1.200                                                                 
     0     -9.5240782     23  1.200                                                                 
     1     -9.0304911     23  1.520                                                                 
     1      8.1634956     23  1.520                                                                 
     2     -9.5240782      7  1.500                                                                 
  local pseudopotential read in
  partial core-charges read in
  partial kinetic energy density read in
  kinetic energy density of atom read in
  atomic valenz-charges read in
  non local Contribution for L=           0  read in
    real space projection operators read in
  non local Contribution for L=           0  read in
    real space projection operators read in
  non local Contribution for L=           1  read in
    real space projection operators read in
  non local Contribution for L=           1  read in
    real space projection operators read in
    PAW grid and wavefunctions read in

   number of l-projection  operators is LMAX  =           4
   number of lm-projection operators is LMMAX =           8

 -----------------------------------------------------------------------------
|                                                                             |
|               ----> ADVICE to this user running VASP <----                  |
|                                                                             |
|     You have a (more or less) 'large supercell' and for larger cells it     |
|     might be more efficient to use real-space projection operators.         |
|     Therefore, try LREAL= Auto in the INCAR file.                           |
|     Mind: For very accurate calculation, you might also keep the            |
|     reciprocal projection scheme (i.e. LREAL=.FALSE.).                      |
|                                                                             |
 -----------------------------------------------------------------------------

  PAW_PBE N 08Apr2002                   :
 energy of atom  1       EATOM= -264.5486
 kinetic energy error for atom=    0.0103 (will be added to EATOM!!)
  PAW_PBE O 08Apr2002                   :
 energy of atom  2       EATOM= -432.3788
 kinetic energy error for atom=    0.0168 (will be added to EATOM!!)
  PAW_PBE Mg_pv 13Apr2007               :
 energy of atom  3       EATOM=-1056.7344
 kinetic energy error for atom=    0.0221 (will be added to EATOM!!)
  PAW_PBE O 08Apr2002                   :
 energy of atom  4       EATOM= -432.3788
 kinetic energy error for atom=    0.0168 (will be added to EATOM!!)


 POSCAR:  N  O Mg  O
  positions in direct lattice
  No initial velocities read in
 exchange correlation table for  LEXCH =        8
   RHO(1)=    0.500       N(1)  =     2000
   RHO(2)=  100.500       N(2)  =     4000



--------------------------------------------------------------------------------------------------------


 ion  position               nearest neighbor table
   1  0.529  0.548  0.791-   2 1.12
   2  0.625  0.638  0.781-   1 1.12   3 1.19
   3  0.727  0.734  0.771-   2 1.19
   4  0.250  0.000  0.352-  38 2.10  39 2.10  46 2.10  55 2.10  36 2.10
   5  0.500  0.250  0.352-  38 2.10  39 2.10  47 2.10  54 2.10  37 2.10
   6  0.250  0.250  0.451-  36 2.10  37 2.10  44 2.10  53 2.10  38 2.10  42 2.10
   7  0.500  0.000  0.451-  36 2.10  37 2.10  45 2.10  52 2.10  39 2.10  43 2.11
   8  0.250  1.000  0.550-  59 2.10  50 2.10  43 2.10  42 2.10  36 2.11  40 2.13
   9  0.500  0.250  0.550-  58 2.10  43 2.10  42 2.10  51 2.10  37 2.11  41 2.13
  10  0.250  0.250  0.648-  42 2.09  57 2.10  40 2.10  48 2.10  41 2.10
  11  0.500  0.000  0.648-  43 2.09  41 2.10  56 2.10  40 2.10  49 2.11
  12  0.250  0.500  0.352-  38 2.10  46 2.10  47 2.10  63 2.10  44 2.10
  13  0.500  0.750  0.352-  39 2.10  46 2.10  47 2.10  62 2.10  45 2.10
  14  0.250  0.750  0.451-  36 2.10  44 2.10  45 2.10  61 2.10  46 2.10  50 2.11
  15  0.500  0.500  0.451-  37 2.10  44 2.10  45 2.10  60 2.10  47 2.10  51 2.11
  16  0.250  0.500  0.550-  50 2.10  67 2.10  42 2.10  51 2.10  44 2.11  48 2.13
  17  0.500  0.750  0.550-  66 2.10  43 2.10  51 2.10  50 2.10  45 2.12  49 2.14
  18  0.250  0.750  0.648-  50 2.09  65 2.09  49 2.10  40 2.10  48 2.10
  19  0.499  0.499  0.647-  51 2.08  48 2.09  41 2.09  64 2.11  49 2.11
  20  0.750  0.000  0.352-  39 2.10  54 2.10  55 2.10  62 2.10  52 2.10
  21  0.000  0.250  0.352-  38 2.10  54 2.10  55 2.10  63 2.10  53 2.10
  22  0.750  0.250  0.451-  37 2.10  52 2.10  53 2.10  60 2.10  54 2.10  58 2.11
  23  0.000  0.000  0.451-  36 2.10  52 2.10  53 2.10  61 2.10  55 2.10  59 2.11
  24  0.750  1.000  0.550-  66 2.10  59 2.10  43 2.10  58 2.11  52 2.11  56 2.12
  25  1.000  0.250  0.550-  59 2.10  58 2.10  67 2.10  42 2.10  53 2.11  57 2.13
  26  0.750  0.250  0.648-  58 2.09  56 2.09  64 2.10  57 2.10  41 2.10
  27  0.000  0.000  0.648-  59 2.09  57 2.10  40 2.10  56 2.10  65 2.10
  28  0.750  0.500  0.352-  47 2.10  54 2.10  62 2.10  63 2.10  60 2.10
  29  0.000  0.750  0.352-  46 2.10  55 2.10  62 2.10  63 2.10  61 2.10
  30  0.750  0.750  0.451-  45 2.10  52 2.10  60 2.10  61 2.10  62 2.10  66 2.11
  31  0.000  0.500  0.451-  44 2.10  53 2.10  60 2.10  61 2.10  63 2.10  67 2.11
  32  0.750  0.500  0.550-  66 2.10  67 2.10  51 2.10  58 2.10  60 2.12  64 2.14
  33  1.000  0.750  0.550-  66 2.10  59 2.10  67 2.10  50 2.11  61 2.11  65 2.12
  34  0.751  0.751  0.649-  65 2.10  56 2.10  64 2.11  49 2.11  66 2.11
  35  0.000  0.500  0.648-  67 2.09  48 2.10  57 2.10  65 2.10  64 2.11
  36  0.250  0.000  0.451-   6 2.10   7 2.10  14 2.10  23 2.10   4 2.10   8 2.11
  37  0.500  0.250  0.451-   6 2.10   7 2.10  15 2.10  22 2.10   5 2.10   9 2.11
  38  0.250  0.250  0.352-   4 2.10   5 2.10  12 2.10  21 2.10   6 2.10
  39  0.500  0.000  0.352-   4 2.10   5 2.10  13 2.10  20 2.10   7 2.10
  40  0.250  0.000  0.650-  10 2.10  11 2.10  27 2.10  18 2.10   8 2.13
  41  0.500  0.250  0.650-  19 2.09  11 2.10  10 2.10  26 2.10   9 2.13
  42  0.250  0.250  0.549-  10 2.09   8 2.10   9 2.10  16 2.10  25 2.10   6 2.10
  43  0.500  1.000  0.550-  11 2.09  17 2.10   9 2.10   8 2.10  24 2.10   7 2.11
  44  0.250  0.500  0.451-   6 2.10  14 2.10  15 2.10  31 2.10  12 2.10  16 2.11
  45  0.500  0.750  0.451-   7 2.10  14 2.10  15 2.10  30 2.10  13 2.10  17 2.12
  46  0.250  0.750  0.352-   4 2.10  12 2.10  13 2.10  29 2.10  14 2.10
  47  0.500  0.500  0.352-   5 2.10  12 2.10  13 2.10  28 2.10  15 2.10
  48  0.250  0.500  0.650-  19 2.09  35 2.10  10 2.10  18 2.10  16 2.13
  49  0.500  0.750  0.650-  18 2.10  11 2.11  19 2.11  34 2.11  17 2.14
  50  0.250  0.750  0.550-  18 2.09   8 2.10  16 2.10  17 2.10  33 2.11  14 2.11
  51  0.500  0.500  0.550-  19 2.08  32 2.10  17 2.10   9 2.10  16 2.10  15 2.11
  52  0.750  0.000  0.451-   7 2.10  22 2.10  23 2.10  30 2.10  20 2.10  24 2.11
  53  0.000  0.250  0.451-   6 2.10  22 2.10  23 2.10  31 2.10  21 2.10  25 2.11
  54  0.750  0.250  0.352-   5 2.10  20 2.10  21 2.10  28 2.10  22 2.10
  55  0.000  0.000  0.352-   4 2.10  20 2.10  21 2.10  29 2.10  23 2.10
  56  0.750  0.001  0.650-  26 2.09  34 2.10  11 2.10  27 2.10  24 2.12
  57  1.000  0.250  0.650-  10 2.10  27 2.10  35 2.10  26 2.10  25 2.13
  58  0.750  0.250  0.550-  26 2.09   9 2.10  25 2.10  32 2.10  24 2.11  22 2.11
  59  0.000  0.000  0.550-  27 2.09   8 2.10  25 2.10  24 2.10  33 2.10  23 2.11
  60  0.750  0.500  0.451-  15 2.10  22 2.10  30 2.10  31 2.10  28 2.10  32 2.12
  61  0.000  0.750  0.451-  14 2.10  23 2.10  30 2.10  31 2.10  29 2.10  33 2.11
  62  0.750  0.750  0.352-  13 2.10  20 2.10  28 2.10  29 2.10  30 2.10
  63  0.000  0.500  0.352-  12 2.10  21 2.10  28 2.10  29 2.10  31 2.10
  64  0.749  0.500  0.651-  26 2.10  19 2.11  35 2.11  34 2.11  32 2.14
  65  0.001  0.750  0.650-  18 2.09  34 2.10  35 2.10  27 2.10  33 2.12
  66  0.750  0.750  0.550-  32 2.10  17 2.10  33 2.10  24 2.10  30 2.11  34 2.11
  67  1.000  0.500  0.550-  35 2.09  32 2.10  16 2.10  25 2.10  33 2.10  31 2.11


IMPORTANT INFORMATION: All symmetrisations will be switched off!
NOSYMM: (Re-)initialisation of all symmetry stuff for point group C_1.


----------------------------------------------------------------------------------------

                                     Primitive cell                                     

  volume of cell :    1504.9259

  direct lattice vectors                    reciprocal lattice vectors
     8.404861995  0.000000000  0.000000000     0.118978753  0.000000000  0.000000000
     0.000000000  8.404861995  0.000000000     0.000000000  0.118978753  0.000000000
     0.000000000  0.000000000 21.303646496     0.000000000  0.000000000  0.046940321

  length of vectors
     8.404861995  8.404861995 21.303646496     0.118978753  0.118978753  0.046940321

  position of ions in fractional coordinates (direct lattice)
     0.529187886  0.548291667  0.791020401
     0.625216052  0.638285392  0.781491182
     0.727110027  0.733756785  0.770952853
     0.250000000  0.000000000  0.352052406
     0.500000000  0.250000000  0.352052406
     0.250000000  0.250000000  0.450684135
     0.500000000  0.000000000  0.450684135
     0.249911680  0.999929864  0.549787010
     0.499978062  0.249765930  0.549732372
     0.249776756  0.249894274  0.647715488
     0.500009635  0.000193437  0.647645646
     0.250000000  0.500000000  0.352052406
     0.500000000  0.750000000  0.352052406
     0.250000000  0.750000000  0.450684135
     0.500000000  0.500000000  0.450684135
     0.249679908  0.500028870  0.549739881
     0.500337056  0.749994509  0.550035686
     0.249615983  0.749949730  0.647606730
     0.498689610  0.498793728  0.647268419
     0.750000000  0.000000000  0.352052406
     0.000000000  0.250000000  0.352052406
     0.750000000  0.250000000  0.450684135
     0.000000000  0.000000000  0.450684135
     0.750048350  0.999787187  0.549932830
     0.999868760  0.249988550  0.549794521
     0.749877607  0.249752797  0.647627684
     0.000028367  0.000135705  0.647721950
     0.750000000  0.500000000  0.352052406
     0.000000000  0.750000000  0.352052406
     0.750000000  0.750000000  0.450684135
     0.000000000  0.500000000  0.450684135
     0.749936390  0.500397036  0.550038645
     0.999717214  0.750082824  0.549933959
     0.751108078  0.751178758  0.649154450
     0.000047231  0.500092483  0.647711347
     0.250000000  0.000000000  0.450684135
     0.500000000  0.250000000  0.450684135
     0.250000000  0.250000000  0.352052406
     0.500000000  0.000000000  0.352052406
     0.250023599  0.000051541  0.649820219
     0.499713021  0.249790086  0.649580295
     0.249929268  0.249973191  0.549489771
     0.499911163  0.999788430  0.549572644
     0.250000000  0.500000000  0.450684135
     0.500000000  0.750000000  0.450684135
     0.250000000  0.750000000  0.352052406
     0.500000000  0.500000000  0.352052406
     0.249692188  0.499812455  0.649542664
     0.499550615  0.749540221  0.650475701
     0.250186814  0.749985050  0.549525812
     0.499957669  0.500013800  0.549567412
     0.750000000  0.000000000  0.450684135
     0.000000000  0.250000000  0.450684135
     0.750000000  0.250000000  0.352052406
     0.000000000  0.000000000  0.352052406
     0.749993483  0.000704799  0.649509390
     0.999961590  0.250112861  0.649819680
     0.749920664  0.250262058  0.549530778
     0.000050324  0.000097095  0.549517671
     0.750000000  0.500000000  0.450684135
     0.000000000  0.750000000  0.450684135
     0.750000000  0.750000000  0.352052406
     0.000000000  0.500000000  0.352052406
     0.749327892  0.499699399  0.650501998
     0.000574494  0.750087358  0.649546102
     0.749834747  0.749888767  0.549878285
     0.999704299  0.499971390  0.549587662

  ion indices of the primitive-cell ions
   primitive index   ion index
                 1           1
                 2           2
                 3           3
                 4           4
                 5           5
                 6           6
                 7           7
                 8           8
                 9           9
                10          10
                11          11
                12          12
                13          13
                14          14
                15          15
                16          16
                17          17
                18          18
                19          19
                20          20
                21          21
                22          22
                23          23
                24          24
                25          25
                26          26
                27          27
                28          28
                29          29
                30          30
                31          31
                32          32
                33          33
                34          34
                35          35
                36          36
                37          37
                38          38
                39          39
                40          40
                41          41
                42          42
                43          43
                44          44
                45          45
                46          46
                47          47
                48          48
                49          49
                50          50
                51          51
                52          52
                53          53
                54          54
                55          55
                56          56
                57          57
                58          58
                59          59
                60          60
                61          61
                62          62
                63          63
                64          64
                65          65
                66          66
                67          67

----------------------------------------------------------------------------------------



 KPOINTS: pymatgen v2020.8.13 with grid density = 

Automatic generation of k-mesh.
 Grid dimensions read from file:
 generate k-points for:    2    2    1

 Generating k-lattice:

  Cartesian coordinates                     Fractional coordinates (reciprocal lattice)
     0.059489377  0.000000000  0.000000000     0.500000000  0.000000000  0.000000000
     0.000000000  0.059489377  0.000000000     0.000000000  0.500000000  0.000000000
     0.000000000  0.000000000  0.046940321     0.000000000  0.000000000  1.000000000

  Length of vectors
     0.059489377  0.059489377  0.046940321

  Shift w.r.t. Gamma in fractional coordinates (k-lattice)
     0.000000000  0.000000000  0.000000000

 
 Subroutine IBZKPT returns following result:
 ===========================================
 
 Found      4 irreducible k-points:
 
 Following reciprocal coordinates:
            Coordinates               Weight
  0.000000  0.000000  0.000000      1.000000
  0.500000  0.000000  0.000000      1.000000
  0.000000  0.500000  0.000000      1.000000
  0.500000  0.500000  0.000000      1.000000
 
 Following cartesian coordinates:
            Coordinates               Weight
  0.000000  0.000000  0.000000      1.000000
  0.059489  0.000000  0.000000      1.000000
  0.000000  0.059489  0.000000      1.000000
  0.059489  0.059489  0.000000      1.000000
 


--------------------------------------------------------------------------------------------------------




 Dimension of arrays:
   k-points           NKPTS =      4   k-points in BZ     NKDIM =      4   number of bands    NBANDS=    288
   number of dos      NEDOS =    301   number of ions     NIONS =     67
   non local maximal  LDIM  =      5   non local SUM 2l+1 LMDIM =     13
   total plane-waves  NPLWV = 882000
   max r-space proj   IRMAX =      1   max aug-charges    IRDMAX=  11749
   dimension x,y,z NGX =    70 NGY =   70 NGZ =  180
   dimension x,y,z NGXF=   140 NGYF=  140 NGZF=  360
   support grid    NGXF=   140 NGYF=  140 NGZF=  360
   ions per type =               2   1  32  32
   NGX,Y,Z   is equivalent  to a cutoff of  13.85, 13.85, 14.05 a.u.
   NGXF,Y,Z  is equivalent  to a cutoff of  27.69, 27.69, 28.09 a.u.

 SYSTEM =  MgO-rocksalt                            
 POSCAR =   N  O Mg  O                             

--------------------------------------------------------------------------------------------------------


  energy-cutoff  :      600.00
  volume of cell :     1504.93
      direct lattice vectors                 reciprocal lattice vectors
     8.404861995  0.000000000  0.000000000     0.118978753  0.000000000  0.000000000
     0.000000000  8.404861995  0.000000000     0.000000000  0.118978753  0.000000000
     0.000000000  0.000000000 21.303646496     0.000000000  0.000000000  0.046940321

  length of vectors
     8.404861995  8.404861995 21.303646496     0.118978753  0.118978753  0.046940321



 k-points in units of 2pi/SCALE and weight: pymatgen v2020.8.13 with grid density = 
   0.00000000  0.00000000  0.00000000       0.250
   0.05948938  0.00000000  0.00000000       0.250
   0.00000000  0.05948938  0.00000000       0.250
   0.05948938  0.05948938  0.00000000       0.250

 k-points in reciprocal lattice and weights: pymatgen v2020.8.13 with grid density = 
   0.00000000  0.00000000  0.00000000       0.250
   0.50000000  0.00000000  0.00000000       0.250
   0.00000000  0.50000000  0.00000000       0.250
   0.50000000  0.50000000  0.00000000       0.250

 position of ions in fractional coordinates (direct lattice) 
   0.52918789  0.54829167  0.79102040
   0.62521605  0.63828539  0.78149118
   0.72711003  0.73375678  0.77095285
   0.25000000  0.00000000  0.35205241
   0.50000000  0.25000000  0.35205241
   0.25000000  0.25000000  0.45068414
   0.50000000  0.00000000  0.45068414
   0.24991168  0.99992986  0.54978701
   0.49997806  0.24976593  0.54973237
   0.24977676  0.24989427  0.64771549
   0.50000964  0.00019344  0.64764565
   0.25000000  0.50000000  0.35205241
   0.50000000  0.75000000  0.35205241
   0.25000000  0.75000000  0.45068414
   0.50000000  0.50000000  0.45068414
   0.24967991  0.50002887  0.54973988
   0.50033706  0.74999451  0.55003569
   0.24961598  0.74994973  0.64760673
   0.49868961  0.49879373  0.64726842
   0.75000000  0.00000000  0.35205241
   0.00000000  0.25000000  0.35205241
   0.75000000  0.25000000  0.45068414
   0.00000000  0.00000000  0.45068414
   0.75004835  0.99978719  0.54993283
   0.99986876  0.24998855  0.54979452
   0.74987761  0.24975280  0.64762768
   0.00002837  0.00013570  0.64772195
   0.75000000  0.50000000  0.35205241
   0.00000000  0.75000000  0.35205241
   0.75000000  0.75000000  0.45068414
   0.00000000  0.50000000  0.45068414
   0.74993639  0.50039704  0.55003864
   0.99971721  0.75008282  0.54993396
   0.75110808  0.75117876  0.64915445
   0.00004723  0.50009248  0.64771135
   0.25000000  0.00000000  0.45068414
   0.50000000  0.25000000  0.45068414
   0.25000000  0.25000000  0.35205241
   0.50000000  0.00000000  0.35205241
   0.25002360  0.00005154  0.64982022
   0.49971302  0.24979009  0.64958030
   0.24992927  0.24997319  0.54948977
   0.49991116  0.99978843  0.54957264
   0.25000000  0.50000000  0.45068414
   0.50000000  0.75000000  0.45068414
   0.25000000  0.75000000  0.35205241
   0.50000000  0.50000000  0.35205241
   0.24969219  0.49981246  0.64954266
   0.49955061  0.74954022  0.65047570
   0.25018681  0.74998505  0.54952581
   0.49995767  0.50001380  0.54956741
   0.75000000  0.00000000  0.45068414
   0.00000000  0.25000000  0.45068414
   0.75000000  0.25000000  0.35205241
   0.00000000  0.00000000  0.35205241
   0.74999348  0.00070480  0.64950939
   0.99996159  0.25011286  0.64981968
   0.74992066  0.25026206  0.54953078
   0.00005032  0.00009709  0.54951767
   0.75000000  0.50000000  0.45068414
   0.00000000  0.75000000  0.45068414
   0.75000000  0.75000000  0.35205241
   0.00000000  0.50000000  0.35205241
   0.74932789  0.49969940  0.65050200
   0.00057449  0.75008736  0.64954610
   0.74983475  0.74988877  0.54987828
   0.99970430  0.49997139  0.54958766

 position of ions in cartesian coordinates  (Angst):
   4.44775116  4.60831580 16.85161899
   5.25485463  5.36470063 16.64861188
   6.11125943  6.16712451 16.42410704
   2.10121550  0.00000000  7.50000000
   4.20243100  2.10121550  7.50000000
   2.10121550  2.10121550  9.60121550
   4.20243100  0.00000000  9.60121550
   2.10047318  8.40427251 11.71246812
   4.20224661  2.09924817 11.71130413
   2.09933916  2.10032688 13.79870179
   4.20251198  0.00162581 13.79721390
   2.10121550  4.20243100  7.50000000
   4.20243100  6.30364650  7.50000000
   2.10121550  6.30364650  9.60121550
   4.20243100  4.20243100  9.60121550
   2.09852517  4.20267365 11.71146409
   4.20526390  6.30360034 11.71776581
   2.09798789  6.30322398 13.79638485
   4.19141735  4.19229245 13.78917759
   6.30364650  0.00000000  7.50000000
   0.00000000  2.10121550  7.50000000
   6.30364650  2.10121550  9.60121550
   0.00000000  0.00000000  9.60121550
   6.30405287  8.40307333 11.71557460
   8.40375894  2.10111926 11.71262812
   6.30261780  2.09913779 13.79683124
   0.00023842  0.00114058 13.79883944
   6.30364650  4.20243100  7.50000000
   0.00000000  6.30364650  7.50000000
   6.30364650  6.30364650  9.60121550
   0.00000000  4.20243100  9.60121550
   6.30311187  4.20576803 11.71782885
   8.40248522  6.30434262 11.71559865
   6.31295974  6.31355379 13.82935692
   0.00039697  4.20320831 13.79861357
   2.10121550  0.00000000  9.60121550
   4.20243100  2.10121550  9.60121550
   2.10121550  2.10121550  7.50000000
   4.20243100  0.00000000  7.50000000
   2.10141385  0.00043319 13.84354022
   4.20001898  2.09945120 13.83842898
   2.10062101  2.10099018 11.70613582
   4.20168433  8.40308378 11.70790134
   2.10121550  4.20243100  9.60121550
   4.20243100  6.30364650  9.60121550
   2.10121550  6.30364650  7.50000000
   4.20243100  4.20243100  7.50000000
   2.09862839  4.20085471 13.83762730
   4.19865398  6.29978211 13.85750440
   2.10278564  6.30352084 11.70690364
   4.20207521  4.20254699 11.70778987
   6.30364650  0.00000000  9.60121550
   0.00000000  2.10121550  9.60121550
   6.30364650  2.10121550  7.50000000
   0.00000000  0.00000000  7.50000000
   6.30359172  0.00592373 13.83691844
   8.40453916  2.10216408 13.84352875
   6.30297969  2.10341806 11.70700944
   0.00042297  0.00081607 11.70673022
   6.30364650  4.20243100  9.60121550
   0.00000000  6.30364650  9.60121550
   6.30364650  6.30364650  7.50000000
   0.00000000  4.20243100  7.50000000
   6.29799752  4.19990448 13.85806461
   0.00482854  6.30438073 13.83770053
   6.30225757  6.30271160 11.71441259
   8.40237667  4.20219054 11.70822126



--------------------------------------------------------------------------------------------------------

--------------------------------------- Iteration      FINAL  ---------------------------------------


--------------------OUTCAR has been truncated-------------------------


--------------------OUTCAR has been truncated-------------------------


--------------------OUTCAR has been truncated-------------------------


--------------------OUTCAR has been truncated-------------------------


--------------------OUTCAR has been truncated-------------------------


--------------------OUTCAR has been truncated-------------------------


--------------------OUTCAR has been truncated-------------------------


--------------------OUTCAR has been truncated-------------------------


--------------------OUTCAR has been truncated-------------------------


--------------------OUTCAR has been truncated-------------------------


  DFT-D2 method for vdW energy calculation
  -------------------------------------------------------------------

  Parameters of vdW forcefield:
         C6(Jnm^6/mol)     R0(A)
   -----------------------------
   N        1.230          1.397
   O        0.700          1.342
   Mg       0.630          1.243
   O        0.700          1.342

  vdW correction parametrized for the method pbe       

  IVDW =   1
  VDW_RADIUS =    50.000 A
  VDW_S6 =     0.750
  VDW_SR =     1.000
  VDW_D =    20.000
  LVDW_EWALD = F

  Number of pair interactions contributing to vdW energy:  799897
  Edisp (eV):   -3.81438
    FORVDW:  cpu time      0.1921: real time      0.1921

  FORCE on cell =-STRESS in cart. coord.  units (eV):
  Direction    XX          YY          ZZ          XY          YZ          ZX
  --------------------------------------------------------------------------------------
  Alpha Z   935.91873   935.91873   935.91873
  Ewald  159539.01837159482.86608************   402.93130  -107.36809  -115.81972
  Hartree169940.02032169913.04791************   178.28910   -48.98277   -52.45459
  E(xc)   -2530.46211 -2530.61009 -2536.58379     1.13757    -0.29088    -0.30900
  Local  ************************338872.91616  -538.41856   145.45469   156.45125
  n-local -2859.83310 -2859.45890 -2877.22487    -2.84214     0.70987     0.71489
  augment  1055.05266  1055.24380  1047.22353    -1.47858     0.38868     0.42289
  Kinetic  7622.45664  7627.39582  7698.57850   -38.03631     9.76260    10.75342
  Fock        0.00000     0.00000     0.00000     0.00000     0.00000     0.00000
  vdW        -5.51077    -5.51251    -4.74380     0.01073    -0.00704    -0.00732
  -------------------------------------------------------------------------------------
  Total     -14.62807   -14.79159     7.42935     1.59311    -0.33294    -0.24819
  in kB     -15.57336   -15.74745     7.90945     1.69606    -0.35445    -0.26423
  external pressure =       -7.80 kB  Pullay stress =        0.00 kB


 VOLUME and BASIS-vectors are now :
 -----------------------------------------------------------------------------
  energy-cutoff  :      600.00
  volume of cell :     1504.93
      direct lattice vectors                 reciprocal lattice vectors
     8.404861995  0.000000000  0.000000000     0.118978753  0.000000000  0.000000000
     0.000000000  8.404861995  0.000000000     0.000000000  0.118978753  0.000000000
     0.000000000  0.000000000 21.303646496     0.000000000  0.000000000  0.046940321

  length of vectors
     8.404861995  8.404861995 21.303646496     0.118978753  0.118978753  0.046940321


 FORCES acting on ions:
    Electron-Ion                     Ewald-Force                    Non-Local-Force
 -----------------------------------------------------------------------------------------------
   0.216E+03 0.203E+03 -.126E+04   -.255E+03 -.239E+03 0.127E+04   0.370E+02 0.346E+02 -.940E+01
   0.143E+02 0.134E+02 -.126E+04   -.126E+02 -.118E+02 0.126E+04   -.510E+00 -.497E+00 0.219E+00
   -.219E+03 -.205E+03 -.152E+04   0.266E+03 0.249E+03 0.151E+04   -.465E+02 -.436E+02 0.104E+02
   0.177E+00 -.172E+00 0.211E+04   -.177E+00 0.170E+00 -.211E+04   -.180E-03 0.106E-02 -.707E+01
   0.151E+00 0.182E+00 0.211E+04   -.150E+00 -.182E+00 -.211E+04   -.893E-03 0.321E-03 -.706E+01
   0.815E+00 0.731E+00 0.746E+03   -.831E+00 -.745E+00 -.747E+03   0.116E-01 0.103E-01 0.449E+00
   0.698E+00 -.801E+00 0.748E+03   -.699E+00 0.758E+00 -.748E+03   0.163E-02 0.308E-01 0.488E+00
   0.303E+01 -.409E+01 -.617E+03   -.304E+01 0.408E+01 0.617E+03   0.141E-01 0.113E-01 -.258E+00
   0.376E+01 0.469E+01 -.609E+03   -.375E+01 -.472E+01 0.609E+03   -.113E-01 0.298E-01 -.333E+00
   0.138E+02 0.134E+02 -.199E+04   -.138E+02 -.135E+02 0.199E+04   0.138E-01 0.806E-02 0.618E+01
   0.219E+02 -.287E+02 -.197E+04   -.219E+02 0.289E+02 0.196E+04   0.261E-01 -.170E+00 0.621E+01
   0.204E+00 0.172E+00 0.211E+04   -.204E+00 -.171E+00 -.211E+04   0.522E-03 -.988E-03 -.706E+01
   0.174E+00 -.184E+00 0.211E+04   -.170E+00 0.184E+00 -.211E+04   -.238E-02 0.228E-03 -.708E+01
   0.846E+00 -.745E+00 0.748E+03   -.819E+00 0.758E+00 -.748E+03   -.194E-01 -.922E-02 0.452E+00
   0.716E+00 0.817E+00 0.750E+03   -.687E+00 -.786E+00 -.750E+03   -.215E-01 -.229E-01 0.493E+00
   0.509E+01 0.417E+01 -.609E+03   -.512E+01 -.417E+01 0.609E+03   0.326E-01 -.102E-01 -.355E+00
   0.643E+01 -.493E+01 -.602E+03   -.635E+01 0.495E+01 0.602E+03   -.827E-01 -.219E-01 -.161E+00
   0.216E+02 -.149E+02 -.197E+04   -.217E+02 0.149E+02 0.196E+04   0.112E+00 -.974E-03 0.617E+01
   0.318E+02 0.359E+02 -.190E+04   -.320E+02 -.362E+02 0.189E+04   0.235E+00 0.253E+00 0.614E+01
   -.177E+00 -.193E+00 0.211E+04   0.177E+00 0.190E+00 -.211E+04   0.224E-03 0.206E-02 -.706E+01
   -.151E+00 0.155E+00 0.211E+04   0.150E+00 -.155E+00 -.211E+04   0.116E-02 -.346E-03 -.707E+01
   -.839E+00 0.749E+00 0.748E+03   0.849E+00 -.718E+00 -.748E+03   -.766E-02 -.219E-01 0.454E+00
   -.694E+00 -.770E+00 0.747E+03   0.694E+00 0.772E+00 -.747E+03   -.101E-02 -.201E-02 0.462E+00
   -.313E+01 -.667E+01 -.607E+03   0.314E+01 0.660E+01 0.608E+03   -.141E-01 0.747E-01 -.485E+00
   -.370E+01 0.267E+01 -.618E+03   0.368E+01 -.267E+01 0.618E+03   0.129E-01 0.856E-02 -.264E+00
   -.149E+02 0.185E+02 -.197E+04   0.149E+02 -.186E+02 0.197E+04   -.677E-02 0.116E+00 0.617E+01
   -.203E+02 -.209E+02 -.199E+04   0.204E+02 0.209E+02 0.198E+04   -.262E-01 -.301E-01 0.621E+01
   -.207E+00 0.195E+00 0.211E+04   0.206E+00 -.191E+00 -.211E+04   0.296E-03 -.250E-02 -.708E+01
   -.172E+00 -.155E+00 0.211E+04   0.169E+00 0.155E+00 -.211E+04   0.218E-02 0.202E-03 -.706E+01
   -.873E+00 -.763E+00 0.749E+03   0.850E+00 0.742E+00 -.750E+03   0.167E-01 0.158E-01 0.554E+00
   -.712E+00 0.782E+00 0.748E+03   0.665E+00 -.781E+00 -.748E+03   0.334E-01 -.138E-03 0.493E+00
   -.532E+01 0.684E+01 -.603E+03   0.534E+01 -.676E+01 0.603E+03   -.233E-01 -.814E-01 -.155E+00
   -.627E+01 -.275E+01 -.607E+03   0.619E+01 0.276E+01 0.608E+03   0.764E-01 -.922E-02 -.470E+00
   -.311E+02 -.269E+02 -.187E+04   0.313E+02 0.272E+02 0.187E+04   -.258E+00 -.239E+00 0.573E+01
   -.254E+02 0.222E+02 -.197E+04   0.256E+02 -.222E+02 0.197E+04   -.175E+00 0.282E-01 0.620E+01
   0.500E+00 -.555E+00 0.559E+03   -.500E+00 0.553E+00 -.559E+03   0.164E-03 0.297E-02 -.816E-01
   0.487E+00 0.595E+00 0.561E+03   -.481E+00 -.584E+00 -.561E+03   -.853E-02 -.146E-01 -.486E-01
   0.144E+00 0.128E+00 0.159E+04   -.145E+00 -.129E+00 -.159E+04   0.202E-02 0.213E-02 0.348E+01
   0.121E+00 -.136E+00 0.159E+04   -.121E+00 0.131E+00 -.159E+04   -.634E-03 0.572E-02 0.348E+01
   0.864E+01 -.111E+02 -.152E+04   -.862E+01 0.110E+02 0.152E+04   -.280E-01 0.340E-01 -.498E+01
   0.107E+02 0.194E+02 -.150E+04   -.106E+02 -.195E+02 0.150E+04   -.335E-01 0.372E-01 -.507E+01
   0.283E+01 0.266E+01 -.457E+03   -.282E+01 -.266E+01 0.457E+03   -.971E-02 -.100E-01 0.259E+00
   0.358E+01 -.400E+01 -.451E+03   -.358E+01 0.401E+01 0.451E+03   -.327E-03 -.553E-02 0.345E+00
   0.659E+00 0.559E+00 0.561E+03   -.643E+00 -.554E+00 -.561E+03   -.208E-01 -.546E-02 -.494E-01
   0.663E+00 -.634E+00 0.561E+03   -.682E+00 0.638E+00 -.561E+03   0.257E-01 -.590E-02 -.134E+00
   0.144E+00 -.128E+00 0.159E+04   -.142E+00 0.130E+00 -.159E+04   -.310E-02 -.218E-02 0.348E+01
   0.121E+00 0.137E+00 0.159E+04   -.117E+00 -.133E+00 -.159E+04   -.684E-02 -.659E-02 0.348E+01
   0.209E+02 0.122E+02 -.150E+04   -.210E+02 -.121E+02 0.150E+04   0.388E-01 -.361E-01 -.508E+01
   0.360E+02 -.253E+02 -.145E+04   -.358E+02 0.253E+02 0.145E+04   -.124E+00 0.427E-01 -.474E+01
   0.317E+01 -.275E+01 -.451E+03   -.317E+01 0.275E+01 0.451E+03   -.490E-03 0.453E-02 0.339E+00
   0.374E+01 0.418E+01 -.442E+03   -.376E+01 -.419E+01 0.442E+03   0.132E-01 0.864E-02 0.466E+00
   -.510E+00 -.704E+00 0.560E+03   0.511E+00 0.714E+00 -.560E+03   -.201E-02 -.135E-01 -.877E-01
   -.494E+00 0.436E+00 0.559E+03   0.495E+00 -.440E+00 -.559E+03   -.106E-02 0.504E-02 -.816E-01
   -.144E+00 0.127E+00 0.159E+04   0.146E+00 -.124E+00 -.159E+04   -.229E-02 -.312E-02 0.348E+01
   -.121E+00 -.136E+00 0.159E+04   0.120E+00 0.135E+00 -.159E+04   0.566E-03 0.779E-03 0.348E+01
   -.988E+01 -.309E+02 -.149E+04   0.986E+01 0.309E+02 0.149E+04   0.266E-01 0.214E-01 -.500E+01
   -.981E+01 0.757E+01 -.152E+04   0.978E+01 -.754E+01 0.152E+04   0.322E-01 -.259E-01 -.498E+01
   -.290E+01 0.275E+01 -.452E+03   0.290E+01 -.276E+01 0.452E+03   0.467E-02 0.357E-02 0.335E+00
   -.349E+01 -.368E+01 -.456E+03   0.349E+01 0.367E+01 0.455E+03   0.417E-02 0.309E-02 0.298E+00
   -.711E+00 0.735E+00 0.561E+03   0.718E+00 -.757E+00 -.561E+03   -.972E-02 0.296E-01 -.135E+00
   -.643E+00 -.435E+00 0.560E+03   0.657E+00 0.435E+00 -.560E+03   -.184E-01 0.179E-03 -.883E-01
   -.145E+00 -.128E+00 0.159E+04   0.143E+00 0.125E+00 -.159E+04   0.349E-02 0.381E-02 0.347E+01
   -.119E+00 0.136E+00 0.159E+04   0.115E+00 -.136E+00 -.159E+04   0.561E-02 -.615E-03 0.348E+01
   -.260E+02 0.369E+02 -.145E+04   0.260E+02 -.368E+02 0.146E+04   0.308E-01 -.130E+00 -.477E+01
   -.293E+02 -.860E+01 -.149E+04   0.293E+02 0.858E+01 0.149E+04   0.137E-01 0.235E-01 -.499E+01
   -.334E+01 -.292E+01 -.446E+03   0.335E+01 0.293E+01 0.446E+03   -.425E-02 -.903E-02 0.584E-02
   -.356E+01 0.375E+01 -.452E+03   0.357E+01 -.375E+01 0.452E+03   -.877E-02 -.496E-03 0.331E+00
 -----------------------------------------------------------------------------------------------
   0.102E+02 0.962E+01 0.150E+02   -.355E-13 0.334E-12 -.671E-11   -.102E+02 -.962E+01 -.150E+02


 POSITION                                       TOTAL-FORCE (eV/Angst)
 -----------------------------------------------------------------------------------
      4.44775      4.60832     16.85162        -1.499259     -1.414728      0.358550
      5.25485      5.36470     16.64861         1.184916      1.105357     -0.262525
      6.11126      6.16712     16.42411         0.334093      0.313680     -0.077176
      2.10122      0.00000      7.50000         0.000094     -0.000414      0.287528
      4.20243      2.10122      7.50000         0.000419     -0.000054      0.285130
      2.10122      2.10122      9.60122        -0.004304     -0.003642      0.023207
      4.20243      0.00000      9.60122         0.000181     -0.012594      0.027301
      2.10047      8.40427     11.71247         0.003459      0.000770      0.013098
      4.20225      2.09925     11.71130        -0.001616      0.003019      0.011426
      2.09934      2.10033     13.79870         0.001691      0.001104      0.079358
      4.20251      0.00163     13.79721        -0.007166     -0.004424      0.074256
      2.10122      4.20243      7.50000        -0.000084      0.000428      0.285102
      4.20243      6.30365      7.50000         0.000825     -0.000099      0.289723
      2.10122      6.30365      9.60122         0.007399      0.003247      0.033345
      4.20243      4.20243      9.60122         0.007141      0.007992      0.029830
      2.09853      4.20267     11.71146         0.003572     -0.001525      0.010841
      4.20526      6.30360     11.71777        -0.001828     -0.003814      0.014265
      2.09799      6.30322     13.79638         0.013583     -0.003342      0.080346
      4.19142      4.19229     13.78918         0.005073      0.006331      0.101041
      6.30365      0.00000      7.50000        -0.000040     -0.000687      0.286506
      0.00000      2.10122      7.50000        -0.000391      0.000106      0.287466
      6.30365      2.10122      9.60122         0.002651      0.008445      0.033381
      0.00000      0.00000      9.60122        -0.000438      0.000106      0.026016
      6.30405      8.40307     11.71557        -0.002995      0.001760      0.001346
      8.40376      2.10112     11.71263         0.000913      0.002865      0.012753
      6.30262      2.09914     13.79683        -0.003649      0.013043      0.078696
      0.00024      0.00114     13.79884         0.008518      0.007881      0.070235
      6.30365      4.20243      7.50000        -0.000081      0.000836      0.289778
      0.00000      6.30365      7.50000        -0.000681     -0.000068      0.286562
      6.30365      6.30365      9.60122        -0.005368     -0.004767      0.042074
      0.00000      4.20243      9.60122        -0.013663      0.000912      0.027673
      6.30311      4.20577     11.71783        -0.004400     -0.001762      0.014170
      8.40249      6.30434     11.71560         0.001891     -0.002540      0.001865
      6.31296      6.31355     13.82936        -0.015651     -0.015410      0.030086
      0.00040      4.20321     13.79861        -0.004131     -0.006709      0.074017
      2.10122      0.00000      9.60122         0.000648      0.000816      0.051089
      4.20243      2.10122      9.60122        -0.002130     -0.003125      0.055649
      2.10122      2.10122      7.50000         0.000609      0.000620     -0.574091
      4.20243      0.00000      7.50000        -0.000143      0.001641     -0.575125
      2.10141      0.00043     13.84354        -0.003904     -0.003116      0.128394
      4.20002      2.09945     13.83843         0.001940     -0.011514      0.123580
      2.10062      2.10099     11.70614        -0.001979     -0.001551     -0.013281
      4.20168      8.40308     11.70790         0.003214      0.000340     -0.014860
      2.10122      4.20243      9.60122        -0.004628     -0.001416      0.056315
      4.20243      6.30365      9.60122         0.006579     -0.001900      0.062631
      2.10122      6.30365      7.50000        -0.000853     -0.000615     -0.575080
      4.20243      4.20243      7.50000        -0.001939     -0.001897     -0.575152
      2.09863      4.20085     13.83763        -0.012481      0.001372      0.122967
      4.19865      6.29978     13.85750         0.003603      0.014092      0.112053
      2.10279      6.30352     11.70690        -0.004991      0.000644     -0.013994
      4.20208      4.20255     11.70779        -0.001332     -0.001195     -0.021457
      6.30365      0.00000      9.60122        -0.000976     -0.003521      0.066358
      0.00000      2.10122      9.60122        -0.000141      0.001793      0.051959
      6.30365      2.10122      7.50000        -0.000617     -0.000885     -0.575074
      0.00000      0.00000      7.50000         0.000197      0.000235     -0.574946
      6.30359      0.00592     13.83692         0.004416     -0.004963      0.138663
      8.40454      2.10216     13.84353        -0.003553     -0.003487      0.128624
      6.30298      2.10342     11.70701         0.001083     -0.004726     -0.013727
      0.00042      0.00082     11.70673        -0.002642     -0.002491     -0.010921
      6.30365      4.20243      9.60122        -0.002803      0.007511      0.062470
      0.00000      6.30365      9.60122        -0.004683     -0.000466      0.066272
      6.30365      6.30365      7.50000         0.001055      0.001122     -0.576557
      0.00000      4.20243      7.50000         0.001637     -0.000166     -0.575124
      6.29800      4.19990     13.85806         0.013777      0.003476      0.115750
      0.00483      6.30438     13.83770        -0.005188      0.004015      0.138066
      6.30226      6.30271     11.71441         0.005290      0.005077     -0.004448
      8.40238      4.20219     11.70822         0.000263      0.002975     -0.014273
 -----------------------------------------------------------------------------------
    total drift:                               -0.002638     -0.000477      0.001586


--------------------------------------------------------------------------------------------------------



  FREE ENERGIE OF THE ION-ELECTRON SYSTEM (eV)
  ---------------------------------------------------
  free  energy   TOTEN  =      -397.46247770 eV

  energy  without entropy=     -397.46247770  energy(sigma->0) =     -397.46247770



--------------------------------------------------------------------------------------------------------


    POTLOK:  cpu time      0.2824: real time      0.2824


--------------------------------------------------------------------------------------------------------


     LOOP+:  cpu time    100.9729: real time    101.2897
    4ORBIT:  cpu time      0.0000: real time      0.0000

 total amount of memory used by VASP MPI-rank0    64255. kBytes
=======================================================================

   base      :      30000. kBytes
   nonl-proj :      17335. kBytes
   fftplans  :       4955. kBytes
   grid      :       8190. kBytes
   one-center:         73. kBytes
   wavefun   :       3702. kBytes

  
  
 General timing and accounting informations for this job:
 ========================================================
  
                  Total CPU time used (sec):      154.928
                            User time (sec):      152.835
                          System time (sec):        2.093
                         Elapsed time (sec):      174.878
  
                   Maximum memory used (kb):      159712.
                   Average memory used (kb):          N/A
  
                          Minor page faults:        43957
                          Major page faults:           52
                 Voluntary context switches:        18824
