 vasp.6.4.2 20Jul23 (build Nov 17 2023 15:39:20) complex                         
 executed on              LinuxNV date 2024.02.25  09:48:17
 running    4 mpi-ranks, with    1 threads/rank, on    1 nodes
 distrk:  each k-point on    4 cores,    1 groups
 distr:  one band on NCORE=   1 cores,    4 groups
 OpenACC runtime initialized ...    4 GPUs detected


--------------------------------------------------------------------------------------------------------


 INCAR:
   SYSTEM = Oxide-Surface
   ISMEAR = 0
   SIGMA = 0.05
   EDIFF = 1E-4
   ALGO = Normal
   ISTART = 2
   IBRION = -1
   NSW = 0
   ISYM = 0
   DIPOL = 0.5 0.5 0.5
   IDIPOL = 3
   LDIPOL = .TRUE.
   LHFCALC = .TRUE.
   HFSCREEN = 0.2
   GGA = PE
   ENCUT = 450
   PREC = Normal
   LASPH = .TRUE.
   LREAL = Auto
   ISPIN = 1
   NELM = 200
   NELMIN = 8
   NCORE = 1
   KPAR = 1
   LWAVE = .FALSE.
   LCHARG = .FALSE.

 POTCAR:    PAW_PBE Ti_pv 07Sep2000               
 POTCAR:    PAW_PBE O 08Apr2002                   
 POTCAR:    PAW_PBE Ti_pv 07Sep2000               
   SHA256 =  f757a1b2c6d082f4c628fa3d987464a8763bf92e53844ac0500b0e2ddc9ce5c0 Ti_pv/POTCAR          
   COPYR  = (c) Copyright 07Sep2000 Georg Kresse                                                    
   COPYR  = This file is part of the software VASP. Any use, copying, and all other rights are regul
   COPYR  = If you do not have a valid VASP license, you may not use, copy or distribute this file. 
   VRHFIN =Ti: d3 s1                                                                                
   LEXCH  = PE                                                                                      
   EATOM  =  1042.5995 eV,   76.6289 Ry                                                             
                                                                                                    
   TITEL  = PAW_PBE Ti_pv 07Sep2000                                                                 
   LULTRA =        F    use ultrasoft PP ?                                                          
   IUNSCR =        1    unscreen: 0-lin 1-nonlin 2-no                                               
   RPACOR =    2.200    partial core radius                                                         
   POMASS =   47.880; ZVAL   =   10.000    mass and valenz                                          
   RCORE  =    2.500    outmost cutoff radius                                                       
   RWIGS  =    2.500; RWIGS  =    1.323    wigner-seitz radius (au A)                               
   ENMAX  =  222.335; ENMIN  =  166.751 eV                                                          
   RCLOC  =    1.701    cutoff for local pot                                                        
   LCOR   =        T    correct aug charges                                                         
   LPAW   =        T    paw PP                                                                      
   EAUG   =  482.848                                                                                
   DEXC   =    0.000                                                                                
   RMAX   =    2.564    core radius for proj-oper                                                   
   RAUG   =    1.300    factor for augmentation sphere                                              
   RDEP   =    2.538    radius for radial grids                                                     
   RDEPT  =    1.952    core radius for aug-charge                                                  
                                                                                                    
   Atomic configuration                                                                             
    8 entries                                                                                       
     n  l   j            E        occ.                                                              
     1  0  0.50     -4865.3608   2.0000                                                             
     2  0  0.50      -533.1368   2.0000                                                             
     2  1  1.50      -440.5031   6.0000                                                             
     3  0  0.50       -59.3186   2.0000                                                             
     3  1  1.50       -35.7012   6.0000                                                             
     3  2  2.50        -1.9157   3.0000                                                             
     4  0  0.50        -3.7291   1.0000                                                             
     4  3  2.50        -1.3606   0.0000                                                             
   Description                                                                                      
     l       E           TYP  RCUT    TYP  RCUT                                                     
     1    -35.7012140     23  2.300                                                                 
     1     -1.3605826     23  2.300                                                                 
     2     -1.9156996     23  2.500                                                                 
     2     -0.4063033     23  2.500                                                                 
     0     -3.7290856     23  2.500                                                                 
     0     20.4087390     23  2.500                                                                 
  local pseudopotential read in
  partial core-charges read in
  partial kinetic energy density read in
  atomic valenz-charges read in
  non local Contribution for L=            1  read in
    real space projection operators read in
  non local Contribution for L=            1  read in
    real space projection operators read in
  non local Contribution for L=            2  read in
    real space projection operators read in
  non local Contribution for L=            2  read in
    real space projection operators read in
  non local Contribution for L=            0  read in
    real space projection operators read in
  non local Contribution for L=            0  read in
    real space projection operators read in
    PAW grid and wavefunctions read in
 
   number of l-projection  operators is LMAX  =            6
   number of lm-projection operators is LMMAX =           18
 
 POTCAR:    PAW_PBE O 08Apr2002                   
   SHA256 =  818f92134a0a090dccd8ba1447fa70422a3b330e708bb4f08108d8ae51209ddf O/POTCAR              
   COPYR  = (c) Copyright 08Apr2002 Georg Kresse                                                    
   COPYR  = This file is part of the software VASP. Any use, copying, and all other rights are regul
   COPYR  = If you do not have a valid VASP license, you may not use, copy or distribute this file. 
   VRHFIN =O: s2p4                                                                                  
   LEXCH  = PE                                                                                      
   EATOM  =   432.3788 eV,   31.7789 Ry                                                             
                                                                                                    
   TITEL  = PAW_PBE O 08Apr2002                                                                     
   LULTRA =        F    use ultrasoft PP ?                                                          
   IUNSCR =        1    unscreen: 0-lin 1-nonlin 2-no                                               
   RPACOR =    1.200    partial core radius                                                         
   POMASS =   16.000; ZVAL   =    6.000    mass and valenz                                          
   RCORE  =    1.520    outmost cutoff radius                                                       
   RWIGS  =    1.550; RWIGS  =    0.820    wigner-seitz radius (au A)                               
   ENMAX  =  400.000; ENMIN  =  300.000 eV                                                          
   ICORE  =        2    local potential                                                             
   LCOR   =        T    correct aug charges                                                         
   LPAW   =        T    paw PP                                                                      
   EAUG   =  605.392                                                                                
   DEXC   =    0.000                                                                                
   RMAX   =    1.553    core radius for proj-oper                                                   
   RAUG   =    1.300    factor for augmentation sphere                                              
   RDEP   =    1.550    radius for radial grids                                                     
   RDEPT  =    1.329    core radius for aug-charge                                                  
                                                                                                    
   Atomic configuration                                                                             
    4 entries                                                                                       
     n  l   j            E        occ.                                                              
     1  0  0.50      -514.6923   2.0000                                                             
     2  0  0.50       -23.9615   2.0000                                                             
     2  1  0.50        -9.0305   4.0000                                                             
     3  2  1.50        -9.5241   0.0000                                                             
   Description                                                                                      
     l       E           TYP  RCUT    TYP  RCUT                                                     
     0    -23.9615318     23  1.200                                                                 
     0     -9.5240782     23  1.200                                                                 
     1     -9.0304911     23  1.520                                                                 
     1      8.1634956     23  1.520                                                                 
     2     -9.5240782      7  1.500                                                                 
  local pseudopotential read in
  partial core-charges read in
  partial kinetic energy density read in
  kinetic energy density of atom read in
  atomic valenz-charges read in
  non local Contribution for L=            0  read in
    real space projection operators read in
  non local Contribution for L=            0  read in
    real space projection operators read in
  non local Contribution for L=            1  read in
    real space projection operators read in
  non local Contribution for L=            1  read in
    real space projection operators read in
    PAW grid and wavefunctions read in
 
   number of l-projection  operators is LMAX  =            4
   number of lm-projection operators is LMMAX =            8
 
 Optimization of the real space projectors (new method)

 maximal supplied QI-value         = 15.12
 optimisation between [QCUT,QGAM] = [ 10.73, 21.62] = [ 32.26,130.87] Ry 
 Optimized for a Real-space Cutoff    1.46 Angstroem

   l    n(q)    QCUT    max X(q) W(low)/X(q) W(high)/X(q)  e(spline) 
   1      9    10.734     4.216    0.90E-04    0.17E-04    0.73E-07
   1      9    10.734     5.422    0.20E-03    0.95E-04    0.21E-06
   2      9    10.734    72.084    0.40E-03    0.60E-03    0.19E-06
   2      9    10.734    65.965    0.40E-03    0.59E-03    0.19E-06
   0      9    10.734    41.531    0.93E-04    0.36E-04    0.17E-06
   0      9    10.734    16.290    0.71E-04    0.26E-04    0.13E-06
 Optimization of the real space projectors (new method)

 maximal supplied QI-value         = 24.76
 optimisation between [QCUT,QGAM] = [ 10.64, 21.54] = [ 31.73,129.89] Ry 
 Optimized for a Real-space Cutoff    1.23 Angstroem

   l    n(q)    QCUT    max X(q) W(low)/X(q) W(high)/X(q)  e(spline) 
   0      8    10.645    20.381    0.38E-03    0.60E-03    0.15E-06
   0      8    10.645    15.268    0.40E-03    0.65E-03    0.17E-06
   1      7    10.645     5.964    0.30E-03    0.63E-03    0.18E-06
   1      7    10.645     5.382    0.24E-03    0.53E-03    0.16E-06
  PAW_PBE Ti_pv 07Sep2000               :
 energy of atom  1       EATOM=-1042.5995
 kinetic energy error for atom=    0.0035 (will be added to EATOM!!)
  PAW_PBE O 08Apr2002                   :
 energy of atom  2       EATOM= -432.3788
 kinetic energy error for atom=    0.0389 (will be added to EATOM!!)
 
 
 POSCAR: Ti  O
  positions in direct lattice
  No initial velocities read in
 exchange correlation table for  LEXCH =        8
   RHO(1)=    0.500       N(1)  =     2000
   RHO(2)=  100.500       N(2)  =     4000
 


--------------------------------------------------------------------------------------------------------


 ion  position               nearest neighbor table
   1  0.750  0.625  0.287-  82 1.95 142 1.95 141 1.95  81 1.95  84 1.98 163 1.98  11 2.96  31 2.96

   2  0.000  0.750  0.287-  83 1.95  84 1.95 103 1.95 104 1.95  85 1.98  32 2.96  12 2.96
   3  0.000  0.625  0.394-  85 1.95 145 1.95  86 1.95 146 1.95  87 1.98  88 1.98  13 2.96  33 2.96

   4  0.750  0.750  0.394-  87 1.95 107 1.95 168 1.95 188 1.95  89 1.98  82 1.98  14 2.96  34 2.96

   5  0.750  0.625  0.500-  89 1.95  90 1.95 149 1.95 150 1.95  92 1.98 171 1.98  15 2.96  35 2.96

   6  0.000  0.750  0.500-  91 1.95  92 1.95 111 1.95 112 1.95  86 1.98  93 2.00  16 2.96  36 2.96

   7  0.000  0.625  0.604- 153 1.90  93 1.90  96 1.95  95 1.95  94 2.02 154 2.02  17 2.96  37 2.96

   8  0.750  0.750  0.611-  97 1.86 176 1.97  95 1.97 196 1.97 115 1.98  90 2.11  38 2.96  18 2.96

   9  0.750  0.625  0.720- 158 1.83  98 1.83 179 2.02 100 2.03 157 2.10  97 2.10  19 2.96  39 2.96

  10  1.000  0.750  0.708-  94 1.81 120 1.94 119 1.95 100 1.95  99 1.95  20 2.96  40 2.96
  11  0.750  0.875  0.287-  82 1.95 102 1.95 101 1.95  81 1.95 104 1.98 183 1.98   1 2.96  21 2.96

  12  0.000  0.000  0.287- 103 1.95 104 1.95 123 1.95 124 1.95 105 1.98  22 2.96   2 2.96
  13  0.000  0.875  0.394-  85 1.95 105 1.95  86 1.95 106 1.95 107 1.98 108 1.98   3 2.96  23 2.96

  14  0.750  0.000  0.394- 107 1.95 127 1.95 188 1.95 208 1.95 109 1.98 102 1.98   4 2.96  24 2.96

  15  0.750  0.875  0.500-  89 1.95  90 1.95 109 1.95 110 1.95 112 1.98 191 1.98   5 2.96  25 2.96

  16  0.000  0.000  0.500- 111 1.95 112 1.95 131 1.95 132 1.95 106 1.98 113 2.00   6 2.96  26 2.96

  17  1.000  0.875  0.604-  93 1.89 113 1.90 115 1.95 116 1.95 114 2.02  94 2.02  27 2.96   7 2.96

  18  0.750  0.000  0.611- 117 1.86 196 1.97 216 1.97 135 1.97 115 1.97 110 2.11   8 2.96  28 2.96

  19  0.750  0.875  0.720- 118 1.83  98 1.83 199 2.02 120 2.03  97 2.10 117 2.10  29 2.96   9 2.96

  20  0.000  0.000  0.708- 114 1.81 119 1.95 139 1.95 120 1.95 140 1.95  10 2.96  30 2.96
  21  0.750  0.125  0.287- 102 1.95 122 1.95 121 1.95 101 1.95 124 1.98 203 1.98  11 2.96  31 2.96

  22  0.000  0.250  0.287- 123 1.95 124 1.95 143 1.95 144 1.95 125 1.98  32 2.96  12 2.96
  23  0.000  0.125  0.394- 105 1.95 125 1.95 106 1.95 126 1.95 127 1.98 128 1.98  13 2.96  33 2.96

  24  0.750  0.250  0.394- 127 1.95 147 1.95 208 1.95 228 1.95 129 1.98 122 1.98  14 2.96  34 2.96

  25  0.750  0.125  0.500- 109 1.95 110 1.95 129 1.95 130 1.95 132 1.98 211 1.98  15 2.96  35 2.96

  26  0.000  0.250  0.500- 131 1.95 132 1.95 151 1.95 152 1.95 126 1.98 133 2.00  16 2.96  36 2.96

  27  1.000  0.125  0.604- 133 1.89 113 1.90 135 1.95 136 1.95 114 2.02 134 2.02  17 2.96  37 2.96

  28  0.750  0.250  0.611- 137 1.86 236 1.97 155 1.97 216 1.97 135 1.98 130 2.11  38 2.96  18 2.96

  29  0.750  0.125  0.720- 118 1.83 138 1.83 219 2.02 140 2.03 137 2.10 117 2.10  19 2.96  39 2.96

  30  1.000  0.250  0.708- 134 1.81 140 1.94 139 1.95 160 1.95 159 1.95  20 2.96  40 2.96
  31  0.750  0.375  0.287- 122 1.95 142 1.95 141 1.95 121 1.95 144 1.98 223 1.98   1 2.96  21 2.96

  32  0.000  0.500  0.287-  83 1.95  84 1.95 143 1.95 144 1.95 145 1.98  22 2.96   2 2.96
  33  0.000  0.375  0.394- 125 1.95 145 1.95 126 1.95 146 1.95 147 1.98 148 1.98   3 2.96  23 2.96

  34  0.750  0.500  0.394-  87 1.95 147 1.95 168 1.95 228 1.95 142 1.98 149 1.98   4 2.96  24 2.96

  35  0.750  0.375  0.500- 129 1.95 130 1.95 149 1.95 150 1.95 152 1.98 231 1.98   5 2.96  25 2.96

  36  0.000  0.500  0.500-  91 1.95  92 1.95 151 1.95 152 1.95 146 1.98 153 2.00   6 2.96  26 2.96

  37  0.000  0.375  0.604- 153 1.90 133 1.90 156 1.95 155 1.95 134 2.02 154 2.02  27 2.96   7 2.96

  38  0.750  0.500  0.611- 157 1.86 176 1.97 236 1.97 155 1.97  95 1.97 150 2.11  28 2.96   8 2.96

  39  0.750  0.375  0.720- 158 1.83 138 1.83 239 2.02 160 2.03 157 2.10 137 2.10  29 2.96   9 2.96

  40  1.000  0.500  0.708- 154 1.81 100 1.94 160 1.94  99 1.95 159 1.95  30 2.96  10 2.96
  41  0.250  0.625  0.287- 162 1.95 222 1.95 221 1.95 161 1.95  83 1.98 164 1.98  51 2.96  71 2.96

  42  0.500  0.750  0.287- 163 1.95 164 1.95 183 1.95 184 1.95 165 1.98  72 2.96  52 2.96
  43  0.500  0.625  0.394- 165 1.95 225 1.95 166 1.95 226 1.95 167 1.98 168 1.98  53 2.96  73 2.96

  44  0.250  0.750  0.394-  88 1.95 108 1.95 167 1.95 187 1.95 169 1.98 162 1.98  54 2.96  74 2.96

  45  0.250  0.625  0.500- 169 1.95 170 1.95 229 1.95 230 1.95  91 1.98 172 1.98  55 2.96  75 2.96

  46  0.500  0.750  0.500- 171 1.95 172 1.95 191 1.95 192 1.95 166 1.98 173 2.00  56 2.96  76 2.96

  47  0.500  0.624  0.605- 233 1.90 173 1.91 176 1.95 175 1.95 174 2.01 234 2.01  77 2.94  57 2.96

  48  0.250  0.750  0.611- 177 1.86 195 1.97 116 1.97 175 1.97  96 1.97 170 2.10  58 2.96  78 2.96

  49  0.249  0.625  0.720- 178 1.83 238 1.84  99 2.02 180 2.03 177 2.09 237 2.10  59 2.95  79 2.97

  50  0.500  0.750  0.708- 174 1.80 180 1.93 179 1.94 200 1.95 199 1.95  60 2.96  80 2.96
  51  0.250  0.875  0.287- 162 1.95 182 1.95 181 1.95 161 1.95 103 1.98 184 1.98  41 2.96  61 2.96

  52  0.500  0.000  0.287- 183 1.95 184 1.95 203 1.95 204 1.95 185 1.98  62 2.96  42 2.96
  53  0.500  0.875  0.394- 165 1.95 185 1.95 166 1.95 186 1.95 187 1.98 188 1.98  43 2.96  63 2.96

  54  0.250  0.000  0.394- 108 1.95 128 1.95 187 1.95 207 1.95 189 1.98 182 1.98  44 2.96  64 2.96

  55  0.250  0.875  0.500- 169 1.95 170 1.95 189 1.95 190 1.95 111 1.98 192 1.98  45 2.96  65 2.96

  56  0.500  0.000  0.500- 191 1.95 192 1.95 211 1.95 212 1.95 186 1.98 193 1.99  46 2.96  66 2.96

  57  0.500  0.875  0.604- 173 1.89 193 1.89 196 1.95 195 1.95 174 2.01 194 2.02  47 2.96  67 2.96

  58  0.250  0.000  0.611- 197 1.86 215 1.97 195 1.97 136 1.97 116 1.97 190 2.11  68 2.96  48 2.96

  59  0.250  0.875  0.721- 198 1.83 178 1.84 200 2.02 119 2.03 197 2.10 177 2.10  49 2.95  69 2.96

  60  0.500  1.000  0.708- 194 1.80 199 1.94 219 1.94 200 1.95 220 1.95  70 2.96  50 2.96
  61  0.250  0.125  0.287- 182 1.95 202 1.95 201 1.95 181 1.95 123 1.98 204 1.98  51 2.96  71 2.96

  62  0.500  0.250  0.287- 203 1.95 204 1.95 223 1.95 224 1.95 205 1.98  72 2.96  52 2.96
  63  0.500  0.125  0.394- 185 1.95 205 1.95 186 1.95 206 1.95 207 1.98 208 1.98  53 2.96  73 2.96

  64  0.250  0.250  0.394- 128 1.95 148 1.95 207 1.95 227 1.95 209 1.98 202 1.98  54 2.96  74 2.96

  65  0.250  0.125  0.500- 189 1.95 190 1.95 209 1.95 210 1.95 131 1.98 212 1.98  55 2.96  75 2.96

  66  0.500  0.250  0.500- 211 1.95 212 1.95 231 1.95 232 1.95 206 1.98 213 2.00  56 2.96  76 2.96

  67  0.500  0.125  0.604- 213 1.89 193 1.89 216 1.95 215 1.95 214 2.01 194 2.02  77 2.96  57 2.96

  68  0.250  0.250  0.611- 217 1.86 215 1.97 136 1.97 235 1.97 156 1.97 210 2.10  58 2.96  78 2.96

  69  0.250  0.125  0.721- 198 1.83 218 1.84 220 2.02 139 2.03 197 2.10 217 2.10  79 2.95  59 2.96

  70  0.500  0.250  0.708- 214 1.80 240 1.93 239 1.94 220 1.95 219 1.95  60 2.96  80 2.96
  71  0.250  0.375  0.287- 202 1.95 222 1.95 221 1.95 201 1.95 143 1.98 224 1.98  41 2.96  61 2.96

  72  0.500  0.500  0.287- 163 1.95 164 1.95 223 1.95 224 1.95 225 1.98  62 2.96  42 2.96
  73  0.500  0.375  0.394- 205 1.95 225 1.95 206 1.95 226 1.95 227 1.98 228 1.98  43 2.96  63 2.96

  74  0.250  0.500  0.394-  88 1.95 148 1.95 167 1.95 227 1.95 222 1.98 229 1.98  44 2.96  64 2.96

  75  0.250  0.375  0.500- 209 1.95 210 1.95 229 1.95 230 1.95 151 1.98 232 1.98  45 2.96  65 2.96

  76  0.500  0.500  0.500- 171 1.95 172 1.95 231 1.95 232 1.95 226 1.98 233 2.00  46 2.96  66 2.96

  77  0.500  0.376  0.605- 233 1.90 213 1.91 236 1.95 235 1.95 214 2.01 234 2.01  47 2.94  67 2.96

  78  0.250  0.500  0.611- 237 1.86 175 1.97 235 1.97  96 1.97 156 1.97 230 2.10  48 2.96  68 2.96

  79  0.249  0.375  0.720- 218 1.83 238 1.84 159 2.02 240 2.03 217 2.09 237 2.10  69 2.95  49 2.97

  80  0.499  0.500  0.710- 234 1.83 239 1.95 179 1.95 240 1.95 180 1.95  50 2.96  70 2.96
  81  0.750  0.750  0.245-   1 1.95  11 1.95
  82  0.750  0.750  0.329-   1 1.95  11 1.95   4 1.98
  83  0.098  0.625  0.287-   2 1.95  32 1.95  41 1.98
  84  0.902  0.625  0.287-   2 1.95  32 1.95   1 1.98
  85  0.000  0.750  0.352-   3 1.95  13 1.95   2 1.98
  86  0.000  0.750  0.435-   3 1.95  13 1.95   6 1.98
  87  0.848  0.625  0.394-   4 1.95  34 1.95   3 1.98
  88  0.152  0.625  0.394-  44 1.95  74 1.95   3 1.98
  89  0.750  0.750  0.458-   5 1.95  15 1.95   4 1.98
  90  0.750  0.750  0.542-   5 1.95  15 1.95   8 2.11
  91  0.098  0.625  0.500-   6 1.95  36 1.95  45 1.98
  92  0.902  0.625  0.500-   6 1.95  36 1.95   5 1.98
  93  1.000  0.750  0.565-  17 1.89   7 1.90   6 2.00
  94  0.000  0.750  0.649-  10 1.81   7 2.02  17 2.02
  95  0.850  0.625  0.607-   7 1.95   8 1.97  38 1.97
  96  0.150  0.625  0.607-   7 1.95  48 1.97  78 1.97
  97  0.750  0.750  0.672-   8 1.86  19 2.10   9 2.10
  98  0.750  0.750  0.756-   9 1.83  19 1.83
  99  0.094  0.625  0.719-  40 1.95  10 1.95  49 2.02
 100  0.906  0.625  0.719-  40 1.94  10 1.95   9 2.03
 101  0.750  0.000  0.245-  11 1.95  21 1.95
 102  0.750  0.000  0.329-  11 1.95  21 1.95  14 1.98
 103  0.098  0.875  0.287-   2 1.95  12 1.95  51 1.98
 104  0.902  0.875  0.287-   2 1.95  12 1.95  11 1.98
 105  0.000  0.000  0.352-  13 1.95  23 1.95  12 1.98
 106  0.000  0.000  0.435-  13 1.95  23 1.95  16 1.98
 107  0.848  0.875  0.394-   4 1.95  14 1.95  13 1.98
 108  0.152  0.875  0.394-  44 1.95  54 1.95  13 1.98
 109  0.750  0.000  0.458-  15 1.95  25 1.95  14 1.98
 110  0.750  0.000  0.542-  15 1.95  25 1.95  18 2.11
 111  0.098  0.875  0.500-   6 1.95  16 1.95  55 1.98
 112  0.902  0.875  0.500-   6 1.95  16 1.95  15 1.98
 113  1.000  0.000  0.565-  27 1.90  17 1.90  16 2.00
 114  0.000  0.000  0.649-  20 1.81  27 2.02  17 2.02
 115  0.850  0.875  0.607-  17 1.95  18 1.97   8 1.98
 116  0.150  0.875  0.607-  17 1.95  58 1.97  48 1.97
 117  0.750  0.000  0.672-  18 1.86  29 2.10  19 2.10
 118  0.750  0.000  0.756-  29 1.83  19 1.83
 119  0.094  0.875  0.719-  10 1.95  20 1.95  59 2.03
 120  0.906  0.875  0.719-  10 1.94  20 1.95  19 2.03
 121  0.750  0.250  0.245-  21 1.95  31 1.95
 122  0.750  0.250  0.329-  21 1.95  31 1.95  24 1.98
 123  0.098  0.125  0.287-  12 1.95  22 1.95  61 1.98
 124  0.902  0.125  0.287-  12 1.95  22 1.95  21 1.98
 125  0.000  0.250  0.352-  23 1.95  33 1.95  22 1.98
 126  0.000  0.250  0.435-  23 1.95  33 1.95  26 1.98
 127  0.848  0.125  0.394-  14 1.95  24 1.95  23 1.98
 128  0.152  0.125  0.394-  54 1.95  64 1.95  23 1.98
 129  0.750  0.250  0.458-  25 1.95  35 1.95  24 1.98
 130  0.750  0.250  0.542-  25 1.95  35 1.95  28 2.11
 131  0.098  0.125  0.500-  16 1.95  26 1.95  65 1.98
 132  0.902  0.125  0.500-  16 1.95  26 1.95  25 1.98
 133  1.000  0.250  0.565-  27 1.89  37 1.90  26 2.00
 134  0.000  0.250  0.649-  30 1.81  37 2.02  27 2.02
 135  0.850  0.125  0.607-  27 1.95  18 1.97  28 1.98
 136  0.150  0.125  0.607-  27 1.95  58 1.97  68 1.97
 137  0.750  0.250  0.672-  28 1.86  29 2.10  39 2.10
 138  0.750  0.250  0.756-  39 1.83  29 1.83
 139  0.094  0.125  0.719-  30 1.95  20 1.95  69 2.03
 140  0.906  0.125  0.719-  30 1.94  20 1.95  29 2.03
 141  0.750  0.500  0.245-   1 1.95  31 1.95
 142  0.750  0.500  0.329-   1 1.95  31 1.95  34 1.98
 143  0.098  0.375  0.287-  22 1.95  32 1.95  71 1.98
 144  0.902  0.375  0.287-  22 1.95  32 1.95  31 1.98
 145  0.000  0.500  0.352-   3 1.95  33 1.95  32 1.98
 146  0.000  0.500  0.435-   3 1.95  33 1.95  36 1.98
 147  0.848  0.375  0.394-  24 1.95  34 1.95  33 1.98
 148  0.152  0.375  0.394-  64 1.95  74 1.95  33 1.98
 149  0.750  0.500  0.458-   5 1.95  35 1.95  34 1.98
 150  0.750  0.500  0.542-   5 1.95  35 1.95  38 2.11
 151  0.098  0.375  0.500-  26 1.95  36 1.95  75 1.98
 152  0.902  0.375  0.500-  26 1.95  36 1.95  35 1.98
 153  1.000  0.500  0.565-  37 1.90   7 1.90  36 2.00
 154  0.000  0.500  0.649-  40 1.81   7 2.02  37 2.02
 155  0.850  0.375  0.607-  37 1.95  28 1.97  38 1.97
 156  0.150  0.375  0.607-  37 1.95  68 1.97  78 1.97
 157  0.751  0.500  0.672-  38 1.86   9 2.10  39 2.10
 158  0.749  0.500  0.756-   9 1.83  39 1.83
 159  0.094  0.375  0.719-  40 1.95  30 1.95  79 2.02
 160  0.906  0.375  0.719-  40 1.94  30 1.95  39 2.03
 161  0.250  0.750  0.245-  41 1.95  51 1.95
 162  0.250  0.750  0.329-  41 1.95  51 1.95  44 1.98
 163  0.598  0.625  0.287-  42 1.95  72 1.95   1 1.98
 164  0.402  0.625  0.287-  42 1.95  72 1.95  41 1.98
 165  0.500  0.750  0.352-  43 1.95  53 1.95  42 1.98
 166  0.500  0.750  0.435-  43 1.95  53 1.95  46 1.98
 167  0.348  0.625  0.394-  44 1.95  74 1.95  43 1.98
 168  0.652  0.625  0.394-   4 1.95  34 1.95  43 1.98
 169  0.250  0.750  0.458-  45 1.95  55 1.95  44 1.98
 170  0.250  0.750  0.542-  45 1.95  55 1.95  48 2.10
 171  0.598  0.625  0.500-  46 1.95  76 1.95   5 1.98
 172  0.402  0.625  0.500-  46 1.95  76 1.95  45 1.98
 173  0.500  0.749  0.565-  57 1.89  47 1.91  46 2.00
 174  0.500  0.751  0.649-  50 1.80  57 2.01  47 2.01
 175  0.350  0.625  0.607-  47 1.95  78 1.97  48 1.97
 176  0.650  0.625  0.607-  47 1.95   8 1.97  38 1.97
 177  0.249  0.750  0.672-  48 1.86  49 2.09  59 2.10
 178  0.251  0.749  0.756-  49 1.83  59 1.84
 179  0.594  0.626  0.718-  50 1.94  80 1.95   9 2.02
 180  0.405  0.627  0.717-  50 1.93  80 1.95  49 2.03
 181  0.250  0.000  0.245-  51 1.95  61 1.95
 182  0.250  0.000  0.329-  51 1.95  61 1.95  54 1.98
 183  0.598  0.875  0.287-  42 1.95  52 1.95  11 1.98
 184  0.402  0.875  0.287-  42 1.95  52 1.95  51 1.98
 185  0.500  0.000  0.352-  53 1.95  63 1.95  52 1.98
 186  0.500  0.000  0.435-  53 1.95  63 1.95  56 1.98
 187  0.348  0.875  0.394-  44 1.95  54 1.95  53 1.98
 188  0.652  0.875  0.394-   4 1.95  14 1.95  53 1.98
 189  0.250  0.000  0.458-  55 1.95  65 1.95  54 1.98
 190  0.250  0.000  0.542-  55 1.95  65 1.95  58 2.11
 191  0.598  0.875  0.500-  46 1.95  56 1.95  15 1.98
 192  0.402  0.875  0.500-  46 1.95  56 1.95  55 1.98
 193  0.500  0.000  0.565-  67 1.89  57 1.89  56 1.99
 194  0.500  0.000  0.649-  60 1.80  67 2.02  57 2.02
 195  0.350  0.875  0.607-  57 1.95  48 1.97  58 1.97
 196  0.650  0.875  0.607-  57 1.95  18 1.97   8 1.97
 197  0.250  0.000  0.672-  58 1.86  69 2.10  59 2.10
 198  0.250  0.000  0.756-  69 1.83  59 1.83
 199  0.594  0.875  0.719-  60 1.94  50 1.95  19 2.02
 200  0.406  0.875  0.719-  60 1.95  50 1.95  59 2.02
 201  0.250  0.250  0.245-  61 1.95  71 1.95
 202  0.250  0.250  0.329-  61 1.95  71 1.95  64 1.98
 203  0.598  0.125  0.287-  52 1.95  62 1.95  21 1.98
 204  0.402  0.125  0.287-  52 1.95  62 1.95  61 1.98
 205  0.500  0.250  0.352-  63 1.95  73 1.95  62 1.98
 206  0.500  0.250  0.435-  63 1.95  73 1.95  66 1.98
 207  0.348  0.125  0.394-  54 1.95  64 1.95  63 1.98
 208  0.652  0.125  0.394-  14 1.95  24 1.95  63 1.98
 209  0.250  0.250  0.458-  65 1.95  75 1.95  64 1.98
 210  0.250  0.250  0.542-  65 1.95  75 1.95  68 2.10
 211  0.598  0.125  0.500-  56 1.95  66 1.95  25 1.98
 212  0.402  0.125  0.500-  56 1.95  66 1.95  65 1.98
 213  0.500  0.251  0.565-  67 1.89  77 1.91  66 2.00
 214  0.500  0.249  0.649-  70 1.80  67 2.01  77 2.01
 215  0.350  0.125  0.607-  67 1.95  68 1.97  58 1.97
 216  0.650  0.125  0.607-  67 1.95  18 1.97  28 1.97
 217  0.249  0.250  0.672-  68 1.86  79 2.09  69 2.10
 218  0.251  0.251  0.756-  79 1.83  69 1.84
 219  0.594  0.125  0.719-  60 1.94  70 1.95  29 2.02
 220  0.406  0.125  0.719-  60 1.95  70 1.95  69 2.02
 221  0.250  0.500  0.245-  41 1.95  71 1.95
 222  0.250  0.500  0.329-  41 1.95  71 1.95  74 1.98
 223  0.598  0.375  0.287-  62 1.95  72 1.95  31 1.98
 224  0.402  0.375  0.287-  62 1.95  72 1.95  71 1.98
 225  0.500  0.500  0.352-  43 1.95  73 1.95  72 1.98
 226  0.500  0.500  0.435-  43 1.95  73 1.95  76 1.98
 227  0.348  0.375  0.394-  64 1.95  74 1.95  73 1.98
 228  0.652  0.375  0.394-  24 1.95  34 1.95  73 1.98
 229  0.250  0.500  0.458-  45 1.95  75 1.95  74 1.98
 230  0.250  0.500  0.542-  45 1.95  75 1.95  78 2.10
 231  0.598  0.375  0.500-  66 1.95  76 1.95  35 1.98
 232  0.402  0.375  0.500-  66 1.95  76 1.95  75 1.98
 233  0.500  0.500  0.566-  47 1.90  77 1.90  76 2.00
 234  0.500  0.500  0.650-  80 1.83  77 2.01  47 2.01
 235  0.350  0.375  0.607-  77 1.95  78 1.97  68 1.97
 236  0.650  0.375  0.607-  77 1.95  28 1.97  38 1.97
 237  0.248  0.500  0.671-  78 1.86  79 2.10  49 2.10
 238  0.253  0.500  0.756-  49 1.84  79 1.84
 239  0.594  0.374  0.718-  70 1.94  80 1.95  39 2.02
 240  0.405  0.373  0.717-  70 1.93  80 1.95  79 2.03
 

IMPORTANT INFORMATION: All symmetrisations will be switched off!
NOSYMM: (Re-)initialisation of all symmetry stuff for point group C_1.


----------------------------------------------------------------------------------------

                                     Primitive cell                                     

  volume of cell :    4700.2961

  direct lattice vectors                    reciprocal lattice vectors
    13.003980404  0.000000000  0.000000000     0.076899531  0.000000000  0.000000000
     0.000000000 11.830378115  0.000000000     0.000000000  0.084528152  0.000000000
     0.000000000  0.000000000 30.552748813     0.000000000  0.000000000  0.032730279

  length of vectors
    13.003980404 11.830378115 30.552748813     0.076899531  0.084528152  0.032730279

  position of ions in fractional coordinates (direct lattice)
     0.750000000  0.625000000  0.287188045
     0.000000000  0.750000000  0.287188045
     0.000000000  0.625000000  0.393594023
     0.750000000  0.750000000  0.393594023
     0.750000000  0.625000000  0.500000000
     0.000000000  0.750000000  0.500000000
     0.000030263  0.625021955  0.604127154
     0.750032362  0.749971388  0.610746625
     0.749731784  0.625029289  0.720403779
     0.999935195  0.750136607  0.708197468
     0.750000000  0.875000000  0.287188045
     0.000000000  0.000000000  0.287188045
     0.000000000  0.875000000  0.393594023
     0.750000000  0.000000000  0.393594023
     0.750000000  0.875000000  0.500000000
     0.000000000  0.000000000  0.500000000
     0.999920704  0.875024125  0.604160308
     0.749949659  0.000000003  0.610754269
     0.749816754  0.875046716  0.720461943
     0.000203576  0.000000001  0.708205577
     0.750000000  0.125000000  0.287188045
     0.000000000  0.250000000  0.287188045
     0.000000000  0.125000000  0.393594023
     0.750000000  0.250000000  0.393594023
     0.750000000  0.125000000  0.500000000
     0.000000000  0.250000000  0.500000000
     0.999920802  0.124975870  0.604160311
     0.750032509  0.250028638  0.610746624
     0.749816769  0.124953279  0.720461940
     0.999935200  0.249863407  0.708197468
     0.750000000  0.375000000  0.287188045
     0.000000000  0.500000000  0.287188045
     0.000000000  0.375000000  0.393594023
     0.750000000  0.500000000  0.393594023
     0.750000000  0.375000000  0.500000000
     0.000000000  0.500000000  0.500000000
     0.000030398  0.374978044  0.604127149
     0.750097307  0.500000000  0.610773780
     0.749731785  0.374970706  0.720403779
     0.999542300  0.500000003  0.708167157
     0.250000000  0.625000000  0.287188045
     0.500000000  0.750000000  0.287188045
     0.500000000  0.625000000  0.393594023
     0.250000000  0.750000000  0.393594023
     0.250000000  0.625000000  0.500000000
     0.500000000  0.750000000  0.500000000
     0.500031638  0.624340840  0.604661207
     0.249948918  0.750119636  0.610607905
     0.249451412  0.625320990  0.719923266
     0.500143258  0.750053202  0.707770089
     0.250000000  0.875000000  0.287188045
     0.500000000  0.000000000  0.287188045
     0.500000000  0.875000000  0.393594023
     0.250000000  0.000000000  0.393594023
     0.250000000  0.875000000  0.500000000
     0.500000000  0.000000000  0.500000000
     0.500105643  0.874698160  0.603798456
     0.250058384  0.000000013  0.610785486
     0.250317485  0.875043647  0.720507658
     0.500048067  0.999999992  0.707840095
     0.250000000  0.125000000  0.287188045
     0.500000000  0.250000000  0.287188045
     0.500000000  0.125000000  0.393594023
     0.250000000  0.250000000  0.393594023
     0.250000000  0.125000000  0.500000000
     0.500000000  0.250000000  0.500000000
     0.500105776  0.125301823  0.603798463
     0.249949074  0.249880371  0.610607899
     0.250317480  0.124956344  0.720507660
     0.500143281  0.249946771  0.707770096
     0.250000000  0.375000000  0.287188045
     0.500000000  0.500000000  0.287188045
     0.500000000  0.375000000  0.393594023
     0.250000000  0.500000000  0.393594023
     0.250000000  0.375000000  0.500000000
     0.500000000  0.500000000  0.500000000
     0.500031728  0.375659141  0.604661223
     0.249881437  0.500000017  0.610552665
     0.249451424  0.374678997  0.719923252
     0.499418350  0.499999989  0.709609070
     0.750000000  0.750000000  0.245477094
     0.750000000  0.750000000  0.328898996
     0.097999548  0.625000000  0.287188045
     0.902000452  0.625000000  0.287188045
     0.000000000  0.750000000  0.351883072
     0.000000000  0.750000000  0.435304973
     0.847999548  0.625000000  0.393594023
     0.152000452  0.625000000  0.393594023
     0.750000000  0.750000000  0.458289049
     0.750000000  0.750000000  0.541710951
     0.097999548  0.625000000  0.500000000
     0.902000452  0.625000000  0.500000000
     0.999974262  0.750070870  0.565358167
     0.000111913  0.749939204  0.649069953
     0.850246964  0.625071788  0.607084943
     0.149710116  0.625128826  0.606949336
     0.750311551  0.750218243  0.671635134
     0.749790629  0.749952388  0.755925321
     0.094047387  0.624743186  0.719026319
     0.905888400  0.625044950  0.718847223
     0.750000000  0.000000000  0.245477094
     0.750000000  0.000000000  0.328898996
     0.097999548  0.875000000  0.287188045
     0.902000452  0.875000000  0.287188045
     0.000000000  0.000000000  0.351883072
     0.000000000  0.000000000  0.435304973
     0.847999548  0.875000000  0.393594023
     0.152000452  0.875000000  0.393594023
     0.750000000  0.000000000  0.458289049
     0.750000000  0.000000000  0.541710951
     0.097999548  0.875000000  0.500000000
     0.902000452  0.875000000  0.500000000
     0.999981991  0.000000004  0.565362424
     0.000123588  0.000000004  0.649072750
     0.850283218  0.875044353  0.607129680
     0.149796248  0.875132826  0.607096169
     0.750080082  0.000000007  0.671656829
     0.750278772  0.000000003  0.755963127
     0.094153752  0.874904293  0.718891673
     0.906025629  0.874964250  0.718765755
     0.750000000  0.250000000  0.245477094
     0.750000000  0.250000000  0.328898996
     0.097999548  0.125000000  0.287188045
     0.902000452  0.125000000  0.287188045
     0.000000000  0.250000000  0.351883072
     0.000000000  0.250000000  0.435304973
     0.847999548  0.125000000  0.393594023
     0.152000452  0.125000000  0.393594023
     0.750000000  0.250000000  0.458289049
     0.750000000  0.250000000  0.541710951
     0.097999548  0.125000000  0.500000000
     0.902000452  0.125000000  0.500000000
     0.999974255  0.249929131  0.565358165
     0.000111909  0.250060803  0.649069953
     0.850283215  0.124955653  0.607129681
     0.149796246  0.124867183  0.607096167
     0.750311555  0.249781760  0.671635133
     0.749790624  0.250047614  0.755925320
     0.094153756  0.125095710  0.718891673
     0.906025629  0.125035757  0.718765757
     0.750000000  0.500000000  0.245477094
     0.750000000  0.500000000  0.328898996
     0.097999548  0.375000000  0.287188045
     0.902000452  0.375000000  0.287188045
     0.000000000  0.500000000  0.351883072
     0.000000000  0.500000000  0.435304973
     0.847999548  0.375000000  0.393594023
     0.152000452  0.375000000  0.393594023
     0.750000000  0.500000000  0.458289049
     0.750000000  0.500000000  0.541710951
     0.097999548  0.375000000  0.500000000
     0.902000452  0.375000000  0.500000000
     0.999948805  0.500000003  0.565350969
     0.000028777  0.499999999  0.649042587
     0.850246954  0.374928225  0.607084943
     0.149710108  0.374871174  0.606949329
     0.750670762  0.500000007  0.671657680
     0.749157538  0.499999998  0.755861677
     0.094047387  0.375256818  0.719026318
     0.905888399  0.374955051  0.718847222
     0.250000000  0.750000000  0.245477094
     0.250000000  0.750000000  0.328898996
     0.597999548  0.625000000  0.287188045
     0.402000452  0.625000000  0.287188045
     0.500000000  0.750000000  0.351883072
     0.500000000  0.750000000  0.435304973
     0.347999548  0.625000000  0.393594023
     0.652000452  0.625000000  0.393594023
     0.250000000  0.750000000  0.458289049
     0.250000000  0.750000000  0.541710951
     0.597999548  0.625000000  0.500000000
     0.402000452  0.625000000  0.500000000
     0.499962032  0.749365375  0.565345053
     0.500288597  0.750736319  0.648708053
     0.350033277  0.624996759  0.607321437
     0.649948091  0.624959036  0.607276347
     0.249138887  0.750315144  0.671600108
     0.250674040  0.749459474  0.755869249
     0.594149294  0.625830742  0.718095739
     0.405099602  0.626625998  0.717257652
     0.250000000  0.000000000  0.245477094
     0.250000000  0.000000000  0.328898996
     0.597999548  0.875000000  0.287188045
     0.402000452  0.875000000  0.287188045
     0.500000000  0.000000000  0.351883072
     0.500000000  0.000000000  0.435304973
     0.347999548  0.875000000  0.393594023
     0.652000452  0.875000000  0.393594023
     0.250000000  0.000000000  0.458289049
     0.250000000  0.000000000  0.541710951
     0.597999548  0.875000000  0.500000000
     0.402000452  0.875000000  0.500000000
     0.499973417  0.000000002  0.565166516
     0.499968159  0.000000003  0.648767803
     0.350067932  0.874972446  0.607055544
     0.649927986  0.875050117  0.607004114
     0.250051869  0.000000002  0.671760199
     0.249888420  0.000000006  0.756021031
     0.594187226  0.875363391  0.718646281
     0.405900823  0.875132000  0.718687630
     0.250000000  0.250000000  0.245477094
     0.250000000  0.250000000  0.328898996
     0.597999548  0.125000000  0.287188045
     0.402000452  0.125000000  0.287188045
     0.500000000  0.250000000  0.351883072
     0.500000000  0.250000000  0.435304973
     0.347999548  0.125000000  0.393594023
     0.652000452  0.125000000  0.393594023
     0.250000000  0.250000000  0.458289049
     0.250000000  0.250000000  0.541710951
     0.597999548  0.125000000  0.500000000
     0.402000452  0.125000000  0.500000000
     0.499962033  0.250634632  0.565345058
     0.500288602  0.249263671  0.648708056
     0.350067926  0.125027557  0.607055547
     0.649927979  0.124949896  0.607004112
     0.249138879  0.249684870  0.671600103
     0.250674049  0.250540540  0.755869247
     0.594187228  0.124636613  0.718646280
     0.405900826  0.124868003  0.718687631
     0.250000000  0.500000000  0.245477094
     0.250000000  0.500000000  0.328898996
     0.597999548  0.375000000  0.287188045
     0.402000452  0.375000000  0.287188045
     0.500000000  0.500000000  0.351883072
     0.500000000  0.500000000  0.435304973
     0.347999548  0.375000000  0.393594023
     0.652000452  0.375000000  0.393594023
     0.250000000  0.500000000  0.458289049
     0.250000000  0.500000000  0.541710951
     0.597999548  0.375000000  0.500000000
     0.402000452  0.375000000  0.500000000
     0.499960000  0.499999985  0.565548941
     0.500123817  0.500000009  0.649640772
     0.350033276  0.375003247  0.607321440
     0.649948086  0.375040970  0.607276350
     0.248437287  0.500000003  0.671453186
     0.253450530  0.499999993  0.755625965
     0.594149295  0.374169259  0.718095736
     0.405099605  0.373374002  0.717257638

  ion indices of the primitive-cell ions
   primitive index   ion index
                 1           1
                 2           2
                 3           3
                 4           4
                 5           5
                 6           6
                 7           7
                 8           8
                 9           9
                10          10
                11          11
                12          12
                13          13
                14          14
                15          15
                16          16
                17          17
                18          18
                19          19
                20          20
                21          21
                22          22
                23          23
                24          24
                25          25
                26          26
                27          27
                28          28
                29          29
                30          30
                31          31
                32          32
                33          33
                34          34
                35          35
                36          36
                37          37
                38          38
                39          39
                40          40
                41          41
                42          42
                43          43
                44          44
                45          45
                46          46
                47          47
                48          48
                49          49
                50          50
                51          51
                52          52
                53          53
                54          54
                55          55
                56          56
                57          57
                58          58
                59          59
                60          60
                61          61
                62          62
                63          63
                64          64
                65          65
                66          66
                67          67
                68          68
                69          69
                70          70
                71          71
                72          72
                73          73
                74          74
                75          75
                76          76
                77          77
                78          78
                79          79
                80          80
                81          81
                82          82
                83          83
                84          84
                85          85
                86          86
                87          87
                88          88
                89          89
                90          90
                91          91
                92          92
                93          93
                94          94
                95          95
                96          96
                97          97
                98          98
                99          99
               100         100
               101         101
               102         102
               103         103
               104         104
               105         105
               106         106
               107         107
               108         108
               109         109
               110         110
               111         111
               112         112
               113         113
               114         114
               115         115
               116         116
               117         117
               118         118
               119         119
               120         120
               121         121
               122         122
               123         123
               124         124
               125         125
               126         126
               127         127
               128         128
               129         129
               130         130
               131         131
               132         132
               133         133
               134         134
               135         135
               136         136
               137         137
               138         138
               139         139
               140         140
               141         141
               142         142
               143         143
               144         144
               145         145
               146         146
               147         147
               148         148
               149         149
               150         150
               151         151
               152         152
               153         153
               154         154
               155         155
               156         156
               157         157
               158         158
               159         159
               160         160
               161         161
               162         162
               163         163
               164         164
               165         165
               166         166
               167         167
               168         168
               169         169
               170         170
               171         171
               172         172
               173         173
               174         174
               175         175
               176         176
               177         177
               178         178
               179         179
               180         180
               181         181
               182         182
               183         183
               184         184
               185         185
               186         186
               187         187
               188         188
               189         189
               190         190
               191         191
               192         192
               193         193
               194         194
               195         195
               196         196
               197         197
               198         198
               199         199
               200         200
               201         201
               202         202
               203         203
               204         204
               205         205
               206         206
               207         207
               208         208
               209         209
               210         210
               211         211
               212         212
               213         213
               214         214
               215         215
               216         216
               217         217
               218         218
               219         219
               220         220
               221         221
               222         222
               223         223
               224         224
               225         225
               226         226
               227         227
               228         228
               229         229
               230         230
               231         231
               232         232
               233         233
               234         234
               235         235
               236         236
               237         237
               238         238
               239         239
               240         240

----------------------------------------------------------------------------------------

 
 
 KPOINTS: pymatgen v2020.8.13 with grid density = 

Automatic generation of k-mesh.
 Grid dimensions read from file:
 generate k-points for:    2    2    1

 Generating k-lattice:

  Cartesian coordinates                     Fractional coordinates (reciprocal lattice)
     0.038449766  0.000000000  0.000000000     0.500000000  0.000000000  0.000000000
     0.000000000  0.042264076  0.000000000     0.000000000  0.500000000  0.000000000
     0.000000000  0.000000000  0.032730279     0.000000000  0.000000000  1.000000000

  Length of vectors
     0.038449766  0.042264076  0.032730279

  Shift w.r.t. Gamma in fractional coordinates (k-lattice)
     0.000000000  0.000000000  0.000000000

 
 Subroutine IBZKPT returns following result:
 ===========================================
 
 Found      4 irreducible k-points:
 
 Following reciprocal coordinates:
            Coordinates               Weight
  0.000000  0.000000  0.000000      1.000000
  0.500000  0.000000  0.000000      1.000000
  0.000000  0.500000  0.000000      1.000000
  0.500000  0.500000  0.000000      1.000000
 
 Following cartesian coordinates:
            Coordinates               Weight
  0.000000  0.000000  0.000000      1.000000
  0.038450  0.000000  0.000000      1.000000
  0.000000  0.042264  0.000000      1.000000
  0.038450  0.042264  0.000000      1.000000
 
 
 Subroutine IBZKPT_HF returns following result:
 ==============================================
 
 Found      4 k-points in 1st BZ
 the following      4 k-points will be used (e.g. in the exchange kernel)
 Following reciprocal coordinates:   # in IRBZ
  0.000000  0.000000  0.000000    0.25000000   1 t-inv F
  0.500000  0.000000  0.000000    0.25000000   2 t-inv F
  0.000000  0.500000  0.000000    0.25000000   3 t-inv F
  0.500000  0.500000  0.000000    0.25000000   4 t-inv F


--------------------------------------------------------------------------------------------------------




 Dimension of arrays:
   k-points           NKPTS =      4   k-points in BZ     NKDIM =      4   number of bands    NBANDS=   1056
   number of dos      NEDOS =    301   number of ions     NIONS =    240
   non local maximal  LDIM  =      6   non local SUM 2l+1 LMDIM =     18
   total plane-waves  NPLWV = 716800
   max r-space proj   IRMAX =   2058   max aug-charges    IRDMAX=   6120
   dimension x,y,z NGX =    70 NGY =   64 NGZ =  160
   dimension x,y,z NGXF=   140 NGYF=  128 NGZF=  320
   support grid    NGXF=   140 NGYF=  128 NGZF=  320
   ions per type =              80 160
   NGX,Y,Z   is equivalent  to a cutoff of   8.95,  8.99,  8.71 a.u.
   NGXF,Y,Z  is equivalent  to a cutoff of  17.90, 17.99, 17.41 a.u.

 SYSTEM =  Oxide-Surface                           
 POSCAR =  Ti  O                                   

    13.003980404 11.830378115 30.552748813     0.076899531  0.084528152  0.032730279


 
 old parameters found on file WAVECAR:
  energy-cutoff  :      450.00
  volume of cell :     4700.30
      direct lattice vectors                 reciprocal lattice vectors
    13.003980404  0.000000000  0.000000000     0.076899531  0.000000000  0.000000000
     0.000000000 11.830378115  0.000000000     0.000000000  0.084528152  0.000000000
     0.000000000  0.000000000 30.552748813     0.000000000  0.000000000  0.032730279

  length of vectors

 
 k-points in units of 2pi/SCALE and weight: pymatgen v2020.8.13 with grid density = 
   0.00000000  0.00000000  0.00000000       0.250
   0.03844977  0.00000000  0.00000000       0.250
   0.00000000  0.04226408  0.00000000       0.250
   0.03844977  0.04226408  0.00000000       0.250
 
 k-points in reciprocal lattice and weights: pymatgen v2020.8.13 with grid density = 
   0.00000000  0.00000000  0.00000000       0.250
   0.50000000  0.00000000  0.00000000       0.250
   0.00000000  0.50000000  0.00000000       0.250
   0.50000000  0.50000000  0.00000000       0.250
 
 position of ions in fractional coordinates (direct lattice) 
   0.75000000  0.62500000  0.28718805
   0.00000000  0.75000000  0.28718805
   0.00000000  0.62500000  0.39359402
   0.75000000  0.75000000  0.39359402
   0.75000000  0.62500000  0.50000000
   0.00000000  0.75000000  0.50000000
   0.00003026  0.62502196  0.60412715
   0.75003236  0.74997139  0.61074663
   0.74973178  0.62502929  0.72040378
   0.99993520  0.75013661  0.70819747
   0.75000000  0.87500000  0.28718805
   0.00000000  0.00000000  0.28718805
   0.00000000  0.87500000  0.39359402
   0.75000000  0.00000000  0.39359402
   0.75000000  0.87500000  0.50000000
   0.00000000  0.00000000  0.50000000
   0.99992070  0.87502412  0.60416031
   0.74994966  0.00000000  0.61075427
   0.74981675  0.87504672  0.72046194
   0.00020358  0.00000000  0.70820558
   0.75000000  0.12500000  0.28718805
   0.00000000  0.25000000  0.28718805
   0.00000000  0.12500000  0.39359402
   0.75000000  0.25000000  0.39359402
   0.75000000  0.12500000  0.50000000
   0.00000000  0.25000000  0.50000000
   0.99992080  0.12497587  0.60416031
   0.75003251  0.25002864  0.61074662
   0.74981677  0.12495328  0.72046194
   0.99993520  0.24986341  0.70819747
   0.75000000  0.37500000  0.28718805
   0.00000000  0.50000000  0.28718805
   0.00000000  0.37500000  0.39359402
   0.75000000  0.50000000  0.39359402
   0.75000000  0.37500000  0.50000000
   0.00000000  0.50000000  0.50000000
   0.00003040  0.37497804  0.60412715
   0.75009731  0.50000000  0.61077378
   0.74973178  0.37497071  0.72040378
   0.99954230  0.50000000  0.70816716
   0.25000000  0.62500000  0.28718805
   0.50000000  0.75000000  0.28718805
   0.50000000  0.62500000  0.39359402
   0.25000000  0.75000000  0.39359402
   0.25000000  0.62500000  0.50000000
   0.50000000  0.75000000  0.50000000
   0.50003164  0.62434084  0.60466121
   0.24994892  0.75011964  0.61060791
   0.24945141  0.62532099  0.71992327
   0.50014326  0.75005320  0.70777009
   0.25000000  0.87500000  0.28718805
   0.50000000  0.00000000  0.28718805
   0.50000000  0.87500000  0.39359402
   0.25000000  0.00000000  0.39359402
   0.25000000  0.87500000  0.50000000
   0.50000000  0.00000000  0.50000000
   0.50010564  0.87469816  0.60379846
   0.25005838  0.00000001  0.61078549
   0.25031748  0.87504365  0.72050766
   0.50004807  0.99999999  0.70784009
   0.25000000  0.12500000  0.28718805
   0.50000000  0.25000000  0.28718805
   0.50000000  0.12500000  0.39359402
   0.25000000  0.25000000  0.39359402
   0.25000000  0.12500000  0.50000000
   0.50000000  0.25000000  0.50000000
   0.50010578  0.12530182  0.60379846
   0.24994907  0.24988037  0.61060790
   0.25031748  0.12495634  0.72050766
   0.50014328  0.24994677  0.70777010
   0.25000000  0.37500000  0.28718805
   0.50000000  0.50000000  0.28718805
   0.50000000  0.37500000  0.39359402
   0.25000000  0.50000000  0.39359402
   0.25000000  0.37500000  0.50000000
   0.50000000  0.50000000  0.50000000
   0.50003173  0.37565914  0.60466122
   0.24988144  0.50000002  0.61055266
   0.24945142  0.37467900  0.71992325
   0.49941835  0.49999999  0.70960907
   0.75000000  0.75000000  0.24547709
   0.75000000  0.75000000  0.32889900
   0.09799955  0.62500000  0.28718805
   0.90200045  0.62500000  0.28718805
   0.00000000  0.75000000  0.35188307
   0.00000000  0.75000000  0.43530497
   0.84799955  0.62500000  0.39359402
   0.15200045  0.62500000  0.39359402
   0.75000000  0.75000000  0.45828905
   0.75000000  0.75000000  0.54171095
   0.09799955  0.62500000  0.50000000
   0.90200045  0.62500000  0.50000000
   0.99997426  0.75007087  0.56535817
   0.00011191  0.74993920  0.64906995
   0.85024696  0.62507179  0.60708494
   0.14971012  0.62512883  0.60694934
   0.75031155  0.75021824  0.67163513
   0.74979063  0.74995239  0.75592532
   0.09404739  0.62474319  0.71902632
   0.90588840  0.62504495  0.71884722
   0.75000000  0.00000000  0.24547709
   0.75000000  0.00000000  0.32889900
   0.09799955  0.87500000  0.28718805
   0.90200045  0.87500000  0.28718805
   0.00000000  0.00000000  0.35188307
   0.00000000  0.00000000  0.43530497
   0.84799955  0.87500000  0.39359402
   0.15200045  0.87500000  0.39359402
   0.75000000  0.00000000  0.45828905
   0.75000000  0.00000000  0.54171095
   0.09799955  0.87500000  0.50000000
   0.90200045  0.87500000  0.50000000
   0.99998199  0.00000000  0.56536242
   0.00012359  0.00000000  0.64907275
   0.85028322  0.87504435  0.60712968
   0.14979625  0.87513283  0.60709617
   0.75008008  0.00000001  0.67165683
   0.75027877  0.00000000  0.75596313
   0.09415375  0.87490429  0.71889167
   0.90602563  0.87496425  0.71876576
   0.75000000  0.25000000  0.24547709
   0.75000000  0.25000000  0.32889900
   0.09799955  0.12500000  0.28718805
   0.90200045  0.12500000  0.28718805
   0.00000000  0.25000000  0.35188307
   0.00000000  0.25000000  0.43530497
   0.84799955  0.12500000  0.39359402
   0.15200045  0.12500000  0.39359402
   0.75000000  0.25000000  0.45828905
   0.75000000  0.25000000  0.54171095
   0.09799955  0.12500000  0.50000000
   0.90200045  0.12500000  0.50000000
   0.99997426  0.24992913  0.56535817
   0.00011191  0.25006080  0.64906995
   0.85028321  0.12495565  0.60712968
   0.14979625  0.12486718  0.60709617
   0.75031155  0.24978176  0.67163513
   0.74979062  0.25004761  0.75592532
   0.09415376  0.12509571  0.71889167
   0.90602563  0.12503576  0.71876576
   0.75000000  0.50000000  0.24547709
   0.75000000  0.50000000  0.32889900
   0.09799955  0.37500000  0.28718805
   0.90200045  0.37500000  0.28718805
   0.00000000  0.50000000  0.35188307
   0.00000000  0.50000000  0.43530497
   0.84799955  0.37500000  0.39359402
   0.15200045  0.37500000  0.39359402
   0.75000000  0.50000000  0.45828905
   0.75000000  0.50000000  0.54171095
   0.09799955  0.37500000  0.50000000
   0.90200045  0.37500000  0.50000000
   0.99994880  0.50000000  0.56535097
   0.00002878  0.50000000  0.64904259
   0.85024695  0.37492822  0.60708494
   0.14971011  0.37487117  0.60694933
   0.75067076  0.50000001  0.67165768
   0.74915754  0.50000000  0.75586168
   0.09404739  0.37525682  0.71902632
   0.90588840  0.37495505  0.71884722
   0.25000000  0.75000000  0.24547709
   0.25000000  0.75000000  0.32889900
   0.59799955  0.62500000  0.28718805
   0.40200045  0.62500000  0.28718805
   0.50000000  0.75000000  0.35188307
   0.50000000  0.75000000  0.43530497
   0.34799955  0.62500000  0.39359402
   0.65200045  0.62500000  0.39359402
   0.25000000  0.75000000  0.45828905
   0.25000000  0.75000000  0.54171095
   0.59799955  0.62500000  0.50000000
   0.40200045  0.62500000  0.50000000
   0.49996203  0.74936538  0.56534505
   0.50028860  0.75073632  0.64870805
   0.35003328  0.62499676  0.60732144
   0.64994809  0.62495904  0.60727635
   0.24913889  0.75031514  0.67160011
   0.25067404  0.74945947  0.75586925
   0.59414929  0.62583074  0.71809574
   0.40509960  0.62662600  0.71725765
   0.25000000  0.00000000  0.24547709
   0.25000000  0.00000000  0.32889900
   0.59799955  0.87500000  0.28718805
   0.40200045  0.87500000  0.28718805
   0.50000000  0.00000000  0.35188307
   0.50000000  0.00000000  0.43530497
   0.34799955  0.87500000  0.39359402
   0.65200045  0.87500000  0.39359402
   0.25000000  0.00000000  0.45828905
   0.25000000  0.00000000  0.54171095
   0.59799955  0.87500000  0.50000000
   0.40200045  0.87500000  0.50000000
   0.49997342  0.00000000  0.56516652
   0.49996816  0.00000000  0.64876780
   0.35006793  0.87497245  0.60705554
   0.64992799  0.87505012  0.60700411
   0.25005187  0.00000000  0.67176020
   0.24988842  0.00000001  0.75602103
   0.59418723  0.87536339  0.71864628
   0.40590082  0.87513200  0.71868763
   0.25000000  0.25000000  0.24547709
   0.25000000  0.25000000  0.32889900
   0.59799955  0.12500000  0.28718805
   0.40200045  0.12500000  0.28718805
   0.50000000  0.25000000  0.35188307
   0.50000000  0.25000000  0.43530497
   0.34799955  0.12500000  0.39359402
   0.65200045  0.12500000  0.39359402
   0.25000000  0.25000000  0.45828905
   0.25000000  0.25000000  0.54171095
   0.59799955  0.12500000  0.50000000
   0.40200045  0.12500000  0.50000000
   0.49996203  0.25063463  0.56534506
   0.50028860  0.24926367  0.64870806
   0.35006793  0.12502756  0.60705555
   0.64992798  0.12494990  0.60700411
   0.24913888  0.24968487  0.67160010
   0.25067405  0.25054054  0.75586925
   0.59418723  0.12463661  0.71864628
   0.40590083  0.12486800  0.71868763
   0.25000000  0.50000000  0.24547709
   0.25000000  0.50000000  0.32889900
   0.59799955  0.37500000  0.28718805
   0.40200045  0.37500000  0.28718805
   0.50000000  0.50000000  0.35188307
   0.50000000  0.50000000  0.43530497
   0.34799955  0.37500000  0.39359402
   0.65200045  0.37500000  0.39359402
   0.25000000  0.50000000  0.45828905
   0.25000000  0.50000000  0.54171095
   0.59799955  0.37500000  0.50000000
   0.40200045  0.37500000  0.50000000
   0.49996000  0.49999999  0.56554894
   0.50012382  0.50000001  0.64964077
   0.35003328  0.37500325  0.60732144
   0.64994809  0.37504097  0.60727635
   0.24843729  0.50000000  0.67145319
   0.25345053  0.49999999  0.75562596
   0.59414929  0.37416926  0.71809574
   0.40509961  0.37337400  0.71725764
 
 position of ions in cartesian coordinates  (Angst):
   9.75298530  7.39398632  8.77438420
   0.00000000  8.87278359  8.77438420
   0.00000000  7.39398632 12.02537931
   9.75298530  8.87278359 12.02537931
   9.75298530  7.39398632 15.27637441
   0.00000000  8.87278359 15.27637441
   0.00039354  7.39424606 18.45774519
   9.75340614  8.87244510 18.65998824
   9.74949742  7.39433282 22.01031572
  13.00313768  8.87439970 21.63737936
   9.75298530 10.35158085  8.77438420
   0.00000000  0.00000000  8.77438420
   0.00000000 10.35158085 12.02537931
   9.75298530  0.00000000 12.02537931
   9.75298530 10.35158085 15.27637441
   0.00000000  0.00000000 15.27637441
  13.00294924 10.35186625 18.45875815
   9.75233067  0.00000003 18.66022178
   9.75060238 10.35213352 22.01209278
   0.00264730  0.00000001 21.63762709
   9.75298530  1.47879726  8.77438420
   0.00000000  2.95759453  8.77438420
   0.00000000  1.47879726 12.02537931
   9.75298530  2.95759453 12.02537931
   9.75298530  1.47879726 15.27637441
   0.00000000  2.95759453 15.27637441
  13.00295051  1.47851179 18.45875824
   9.75340805  2.95793332 18.65998818
   9.75060258  1.47824453 22.01209269
  13.00313774  2.95597858 21.63737934
   9.75298530  4.43639179  8.77438420
   0.00000000  5.91518906  8.77438420
   0.00000000  4.43639179 12.02537931
   9.75298530  5.91518906 12.02537931
   9.75298530  4.43639179 15.27637441
   0.00000000  5.91518906 15.27637441
   0.00039530  4.43613205 18.45774503
   9.75425069  5.91518906 18.66081788
   9.74949744  4.43604523 22.01031569
  12.99802848  5.91518909 21.63645327
   3.25099510  7.39398632  8.77438420
   6.50199020  8.87278359  8.77438420
   6.50199020  7.39398632 12.02537931
   3.25099510  8.87278359 12.02537931
   3.25099510  7.39398632 15.27637441
   6.50199020  8.87278359 15.27637441
   6.50240162  7.38618821 18.47406198
   3.25033083  8.87419893 18.65574995
   3.24386127  7.39778376 21.99563472
   6.50385313  8.87341299 21.62432175
   3.25099510 10.35158085  8.77438420
   6.50199020  0.00000000  8.77438420
   6.50199020 10.35158085 12.02537931
   3.25099510  0.00000000 12.02537931
   3.25099510 10.35158085 15.27637441
   6.50199020  0.00000000 15.27637441
   6.50336399 10.34800997 18.44770257
   3.25175432  0.00000015 18.66117553
   3.25512367 10.35209722 22.01348949
   6.50261527 11.83037802 21.62646062
   3.25099510  1.47879726  8.77438420
   6.50199020  2.95759453  8.77438420
   6.50199020  1.47879726 12.02537931
   3.25099510  2.95759453 12.02537931
   3.25099510  1.47879726 15.27637441
   6.50199020  2.95759453 15.27637441
   6.50336571  1.48236795 18.44770276
   3.25033285  2.95617928 18.65574976
   3.25512361  1.47828079 22.01348954
   6.50385343  2.95696481 21.62432196
   3.25099510  4.43639179  8.77438420
   6.50199020  5.91518906  8.77438420
   6.50199020  4.43639179 12.02537931
   3.25099510  5.91518906 12.02537931
   3.25099510  4.43639179 15.27637441
   6.50199020  5.91518906 15.27637441
   6.50240280  4.44418968 18.47406247
   3.24945331  5.91518926 18.65406221
   3.24386142  4.43259421 21.99563430
   6.49442644  5.91518893 21.68050766
   9.75298530  8.87278359  7.50000000
   9.75298530  8.87278359 10.04876841
   1.27438420  7.39398632  8.77438420
  11.72959620  7.39398632  8.77438420
   0.00000000  8.87278359 10.75099510
   0.00000000  8.87278359 13.29976351
  11.02736951  7.39398632 12.02537931
   1.97661090  7.39398632 12.02537931
   9.75298530  8.87278359 14.00199020
   9.75298530  8.87278359 16.55075861
   1.27438420  7.39398632 15.27637441
  11.72959620  7.39398632 15.27637441
  13.00364571  8.87362200 17.27324606
   0.00145531  8.87206435 19.83087125
  11.05659486  7.39483560 18.54811376
   1.94682741  7.39551038 18.54397059
   9.75703671  8.87536548 20.52029954
   9.75026264  8.87222031 23.09559646
   1.22299037  7.39094811 21.96823050
  11.78015500  7.39451809 21.96275864
   9.75298530  0.00000000  7.50000000
   9.75298530  0.00000000 10.04876841
   1.27438420 10.35158085  8.77438420
  11.72959620 10.35158085  8.77438420
   0.00000000  0.00000000 10.75099510
   0.00000000  0.00000000 13.29976351
  11.02736951 10.35158085 12.02537931
   1.97661090 10.35158085 12.02537931
   9.75298530  0.00000000 14.00199020
   9.75298530  0.00000000 16.55075861
   1.27438420 10.35158085 15.27637441
  11.72959620 10.35158085 15.27637441
  13.00374621  0.00000004 17.27337611
   0.00160714  0.00000005 19.83095669
  11.05706630 10.35210556 18.54948062
   1.94794748 10.35315223 18.54845676
   9.75402668  0.00000009 20.52096238
   9.75661044  0.00000004 23.09675154
   1.22437355 10.35044860 21.96411670
  11.78193952 10.35115791 21.96026957
   9.75298530  2.95759453  7.50000000
   9.75298530  2.95759453 10.04876841
   1.27438420  1.47879726  8.77438420
  11.72959620  1.47879726  8.77438420
   0.00000000  2.95759453 10.75099510
   0.00000000  2.95759453 13.29976351
  11.02736951  1.47879726 12.02537931
   1.97661090  1.47879726 12.02537931
   9.75298530  2.95759453 14.00199020
   9.75298530  2.95759453 16.55075861
   1.27438420  1.47879726 15.27637441
  11.72959620  1.47879726 15.27637441
  13.00364562  2.95675613 17.27324602
   0.00145527  2.95831385 19.83087123
  11.05706626  1.47827262 18.54948066
   1.94794744  1.47722599 18.54845671
   9.75703675  2.95501267 20.52029951
   9.75026258  2.95815782 23.09559642
   1.22437359  1.47992955 21.96411670
  11.78193953  1.47922029 21.96026964
   9.75298530  5.91518906  7.50000000
   9.75298530  5.91518906 10.04876841
   1.27438420  4.43639179  8.77438420
  11.72959620  4.43639179  8.77438420
   0.00000000  5.91518906 10.75099510
   0.00000000  5.91518906 13.29976351
  11.02736951  4.43639179 12.02537931
   1.97661090  4.43639179 12.02537931
   9.75298530  5.91518906 14.00199020
   9.75298530  5.91518906 16.55075861
   1.27438420  4.43639179 15.27637441
  11.72959620  4.43639179 15.27637441
  13.00331466  5.91518910 17.27302614
   0.00037421  5.91518905 19.83003514
  11.05659473  4.43554266 18.54811378
   1.94682731  4.43486773 18.54397039
   9.76170788  5.91518914 20.52098839
   9.74202994  5.91518904 23.09365195
   1.22299038  4.43943005 21.96823049
  11.78015499  4.43586003 21.96275860
   3.25099510  8.87278359  7.50000000
   3.25099510  8.87278359 10.04876841
   7.77637441  7.39398632  8.77438420
   5.22760600  7.39398632  8.77438420
   6.50199020  8.87278359 10.75099510
   6.50199020  8.87278359 13.29976351
   4.52537931  7.39398632 12.02537931
   8.47860110  7.39398632 12.02537931
   3.25099510  8.87278359 14.00199020
   3.25099510  8.87278359 16.55075861
   7.77637441  7.39398632 15.27637441
   5.22760600  7.39398632 15.27637441
   6.50149647  8.86527573 17.27284540
   6.50574311  8.88149452 19.81981418
   4.55182588  7.39394798 18.55533931
   8.45191224  7.39350170 18.55396168
   3.23979721  8.87651186 20.51922939
   3.25976031  8.86638895 23.09388331
   7.72630577  7.40381432 21.93979873
   5.26790728  7.41322250 21.91419289
   3.25099510  0.00000000  7.50000000
   3.25099510  0.00000000 10.04876841
   7.77637441 10.35158085  8.77438420
   5.22760600 10.35158085  8.77438420
   6.50199020  0.00000000 10.75099510
   6.50199020  0.00000000 13.29976351
   4.52537931 10.35158085 12.02537931
   8.47860110 10.35158085 12.02537931
   3.25099510  0.00000000 14.00199020
   3.25099510  0.00000000 16.55075861
   7.77637441 10.35158085 15.27637441
   5.22760600 10.35158085 15.27637441
   6.50164452  0.00000002 17.26739060
   6.50157614  0.00000003 19.82163972
   4.55227652 10.35125488 18.54721555
   8.45165080 10.35217375 18.54564421
   3.25166961  0.00000003 20.52412061
   3.24954412  0.00000007 23.09852067
   7.72679905 10.35587990 21.95661932
   5.27832634 10.35314246 21.95788265
   3.25099510  2.95759453  7.50000000
   3.25099510  2.95759453 10.04876841
   7.77637441  1.47879726  8.77438420
   5.22760600  1.47879726  8.77438420
   6.50199020  2.95759453 10.75099510
   6.50199020  2.95759453 13.29976351
   4.52537931  1.47879726 12.02537931
   8.47860110  1.47879726 12.02537931
   3.25099510  2.95759453 14.00199020
   3.25099510  2.95759453 16.55075861
   7.77637441  1.47879726 15.27637441
   5.22760600  1.47879726 15.27637441
   6.50149648  2.96510246 17.27284556
   6.50574317  2.94888348 19.81981429
   4.55227645  1.47912327 18.54721564
   8.45165070  1.47820452 18.54564415
   3.23979710  2.95386642 20.51922925
   3.25976042  2.96398932 23.09388324
   7.72679907  1.47449826 21.95661928
   5.27832639  1.47723569 21.95788266
   3.25099510  5.91518906  7.50000000
   3.25099510  5.91518906 10.04876841
   7.77637441  4.43639179  8.77438420
   5.22760600  4.43639179  8.77438420
   6.50199020  5.91518906 10.75099510
   6.50199020  5.91518906 13.29976351
   4.52537931  4.43639179 12.02537931
   8.47860110  4.43639179 12.02537931
   3.25099510  5.91518906 14.00199020
   3.25099510  5.91518906 16.55075861
   7.77637441  4.43639179 15.27637441
   5.22760600  4.43639179 15.27637441
   6.50147004  5.91518888 17.27907473
   6.50360031  5.91518916 19.84831132
   4.55182586  4.43643021 18.55533941
   8.45191217  4.43687648 18.55396178
   3.23067362  5.91518910 20.51474053
   3.29586573  5.91518898 23.08645030
   7.72630579  4.42656382 21.93979863
   5.26790733  4.41715562 21.91419244
 


--------------------------------------------------------------------------------------------------------

--------------------------------------- Iteration      FINAL  ---------------------------------------


--------------------OUTCAR has been truncated-------------------------


--------------------OUTCAR has been truncated-------------------------


--------------------OUTCAR has been truncated-------------------------


--------------------OUTCAR has been truncated-------------------------


--------------------OUTCAR has been truncated-------------------------


--------------------OUTCAR has been truncated-------------------------


--------------------OUTCAR has been truncated-------------------------


--------------------OUTCAR has been truncated-------------------------


--------------------OUTCAR has been truncated-------------------------


--------------------OUTCAR has been truncated-------------------------


    MIXING:  cpu time      0.0113: real time      0.0114
    OFIELD:  cpu time      0.0002: real time      0.0167

 VOLUME and BASIS-vectors are now :
 -----------------------------------------------------------------------------
  energy-cutoff  :      450.00
  volume of cell :     4700.30
      direct lattice vectors                 reciprocal lattice vectors
    13.003980404  0.000000000  0.000000000     0.076899531  0.000000000  0.000000000
     0.000000000 11.830378115  0.000000000     0.000000000  0.084528152  0.000000000
     0.000000000  0.000000000 30.552748813     0.000000000  0.000000000  0.032730279

  length of vectors
    13.003980404 11.830378115 30.552748813     0.076899531  0.084528152  0.032730279


 FORCES acting on ions
    electron-ion (+dipol)            ewald-force                    non-local-force                 convergence-correction
 -----------------------------------------------------------------------------------------------
   0.152E-01 0.121E-01 0.380E+04   -.154E-01 -.119E-01 -.380E+04   0.714E-04 -.239E-04 0.584E+00   -.330E-04 -.475E-05 0.318E+00
   0.943E-02 0.967E-02 0.398E+04   -.987E-02 -.953E-02 -.397E+04   0.905E-04 -.197E-04 -.420E+01   0.120E-05 -.155E-04 0.317E+00
   0.579E-01 0.189E-01 0.193E+04   -.603E-01 -.185E-01 -.193E+04   0.464E-03 -.278E-04 -.105E+00   -.254E-04 -.147E-04 0.205E+00
   0.512E-01 0.960E-01 0.192E+04   -.520E-01 -.949E-01 -.192E+04   0.202E-03 -.137E-03 0.232E+00   -.350E-04 -.715E-04 0.208E+00
   0.585E+00 0.331E+00 -.216E+02   -.591E+00 -.331E+00 0.225E+02   0.113E-02 -.361E-04 -.163E+00   -.140E-03 -.230E-05 0.432E-01
   0.237E+00 0.295E-02 -.922E+01   -.244E+00 0.403E-02 0.796E+01   0.168E-02 -.204E-02 0.390E+00   -.282E-04 -.498E-04 0.434E-01
   0.103E+01 0.248E-01 -.190E+04   -.100E+01 -.195E-01 0.190E+04   -.372E-02 -.250E-02 0.167E+00   -.236E-03 -.451E-04 -.139E+00
   -.154E+00 0.124E-01 -.196E+04   0.181E+00 0.500E-02 0.196E+04   -.891E-02 -.422E-02 -.259E+00   -.326E-03 -.157E-03 -.151E+00
   -.898E+00 0.726E+00 -.379E+04   0.107E+01 -.660E+00 0.379E+04   -.265E-01 -.885E-02 -.468E+00   -.105E-02 -.275E-03 -.302E+00
   -.500E+00 0.173E+01 -.381E+04   0.530E+00 -.173E+01 0.381E+04   0.995E-02 -.997E-02 0.124E+01   -.657E-03 -.943E-04 -.291E+00
   0.696E-02 0.121E-01 0.380E+04   -.734E-02 -.119E-01 -.380E+04   0.138E-03 -.215E-04 0.584E+00   -.815E-04 -.228E-04 0.318E+00
   0.825E-02 -.797E-05 0.398E+04   -.866E-02 -.442E-07 -.397E+04   0.799E-04 0.757E-06 -.420E+01   0.552E-05 0.101E-04 0.317E+00
   0.403E-01 0.180E-01 0.193E+04   -.422E-01 -.176E-01 -.193E+04   0.337E-03 -.366E-04 -.105E+00   0.177E-04 -.370E-04 0.205E+00
   -.807E-02 -.746E-04 0.192E+04   0.660E-02 0.217E-06 -.192E+04   0.369E-03 0.299E-05 0.231E+00   -.476E-04 0.727E-04 0.208E+00
   -.154E+00 0.319E+00 -.211E+02   0.152E+00 -.315E+00 0.220E+02   0.451E-03 -.394E-03 -.164E+00   -.118E-03 -.429E-04 0.432E-01
   0.980E-01 -.182E-04 -.938E+01   -.101E+00 -.467E-05 0.813E+01   0.652E-03 0.338E-05 0.389E+00   -.427E-04 0.240E-04 0.434E-01
   -.317E-01 0.404E-01 -.190E+04   0.481E-01 -.342E-01 0.190E+04   -.357E-02 -.450E-02 0.173E+00   -.217E-03 -.436E-04 -.140E+00
   -.729E+00 -.205E-04 -.197E+04   0.736E+00 0.164E-04 0.197E+04   0.467E-02 0.773E-06 -.253E+00   -.264E-03 0.375E-05 -.151E+00
   -.905E+00 0.299E+00 -.379E+04   0.912E+00 -.269E+00 0.379E+04   0.254E-01 -.536E-03 -.475E+00   -.687E-03 -.397E-03 -.303E+00
   0.349E-01 -.216E-04 -.381E+04   -.131E-01 0.190E-04 0.381E+04   -.906E-02 -.113E-06 0.125E+01   -.535E-03 0.431E-05 -.291E+00
   0.693E-02 -.121E-01 0.380E+04   -.734E-02 0.119E-01 -.380E+04   0.139E-03 0.231E-04 0.584E+00   -.589E-04 0.205E-04 0.318E+00
   0.945E-02 -.966E-02 0.398E+04   -.987E-02 0.953E-02 -.397E+04   0.866E-04 0.190E-04 -.420E+01   -.154E-04 0.118E-04 0.317E+00
   0.404E-01 -.180E-01 0.193E+04   -.422E-01 0.176E-01 -.193E+04   0.332E-03 0.333E-04 -.105E+00   -.497E-04 0.354E-04 0.205E+00
   0.512E-01 -.959E-01 0.192E+04   -.520E-01 0.949E-01 -.192E+04   0.204E-03 0.133E-03 0.232E+00   -.122E-04 -.401E-04 0.208E+00
   -.154E+00 -.319E+00 -.211E+02   0.152E+00 0.315E+00 0.220E+02   0.451E-03 0.393E-03 -.164E+00   -.996E-04 0.433E-04 0.432E-01
   0.238E+00 -.290E-02 -.922E+01   -.244E+00 -.403E-02 0.796E+01   0.168E-02 0.203E-02 0.390E+00   -.459E-04 0.211E-05 0.434E-01
   -.314E-01 -.404E-01 -.190E+04   0.479E-01 0.343E-01 0.190E+04   -.357E-02 0.450E-02 0.173E+00   -.205E-03 0.276E-04 -.140E+00
   -.153E+00 -.123E-01 -.196E+04   0.181E+00 -.511E-02 0.196E+04   -.890E-02 0.422E-02 -.259E+00   -.329E-03 0.145E-03 -.151E+00
   -.905E+00 -.299E+00 -.379E+04   0.912E+00 0.269E+00 0.379E+04   0.254E-01 0.535E-03 -.475E+00   -.656E-03 0.404E-03 -.303E+00
   -.500E+00 -.173E+01 -.381E+04   0.530E+00 0.173E+01 0.381E+04   0.996E-02 0.997E-02 0.124E+01   -.670E-03 0.117E-03 -.291E+00
   0.152E-01 -.121E-01 0.380E+04   -.154E-01 0.119E-01 -.380E+04   0.709E-04 0.222E-04 0.584E+00   -.187E-04 0.726E-05 0.318E+00
   0.106E-01 0.409E-05 0.398E+04   -.111E-01 0.471E-07 -.397E+04   0.948E-04 0.191E-06 -.420E+01   -.209E-04 -.560E-05 0.317E+00
   0.578E-01 -.189E-01 0.193E+04   -.603E-01 0.185E-01 -.193E+04   0.467E-03 0.297E-04 -.105E+00   -.204E-04 0.192E-04 0.205E+00
   0.110E+00 -.387E-04 0.192E+04   -.110E+00 -.190E-06 -.192E+04   -.699E-05 0.729E-06 0.232E+00   -.225E-04 0.384E-04 0.208E+00
   0.585E+00 -.331E+00 -.216E+02   -.591E+00 0.331E+00 0.225E+02   0.113E-02 0.361E-04 -.163E+00   -.136E-03 0.218E-05 0.432E-01
   0.343E+00 -.269E-04 -.907E+01   -.352E+00 0.576E-05 0.781E+01   0.268E-02 0.197E-05 0.389E+00   -.440E-04 0.242E-04 0.434E-01
   0.103E+01 -.248E-01 -.190E+04   -.100E+01 0.196E-01 0.190E+04   -.372E-02 0.250E-02 0.167E+00   -.223E-03 0.614E-04 -.139E+00
   0.388E+00 -.628E-04 -.196E+04   -.356E+00 0.530E-04 0.196E+04   -.302E-02 0.127E-05 -.269E+00   -.411E-03 0.826E-05 -.151E+00
   -.898E+00 -.726E+00 -.379E+04   0.107E+01 0.660E+00 0.379E+04   -.265E-01 0.885E-02 -.468E+00   -.104E-02 0.267E-03 -.302E+00
   -.558E+00 0.210E-04 -.381E+04   0.639E+00 -.802E-06 0.381E+04   0.112E-01 -.112E-05 0.121E+01   -.821E-03 -.232E-04 -.291E+00
   -.154E-01 0.105E-01 0.380E+04   0.156E-01 -.101E-01 -.380E+04   -.741E-04 -.563E-04 0.585E+00   0.456E-04 0.686E-05 0.318E+00
   -.930E-02 0.226E-01 0.398E+04   0.973E-02 -.221E-01 -.397E+04   -.835E-04 -.610E-04 -.420E+01   0.125E-04 0.100E-04 0.317E+00
   -.542E-01 0.120E+00 0.193E+04   0.565E-01 -.112E+00 -.193E+04   -.440E-03 -.156E-02 -.105E+00   0.418E-04 -.328E-04 0.205E+00
   -.545E-01 0.690E-01 0.192E+04   0.555E-01 -.675E-01 -.192E+04   -.217E-03 -.119E-03 0.233E+00   0.191E-04 0.144E-04 0.208E+00
   -.707E+00 0.160E+00 -.209E+02   0.712E+00 -.149E+00 0.217E+02   -.903E-03 -.129E-02 -.158E+00   0.114E-03 0.532E-05 0.430E-01
   -.201E+00 0.975E+00 -.963E+01   0.206E+00 -.101E+01 0.843E+01   -.486E-03 0.170E-01 0.373E+00   0.547E-04 -.725E-04 0.437E-01
   -.850E-01 0.586E+00 -.190E+04   0.679E-01 -.460E+00 0.190E+04   -.239E-02 -.153E-01 0.195E+00   0.221E-03 -.279E-03 -.140E+00
   -.674E+00 0.526E-01 -.196E+04   0.641E+00 -.326E-01 0.196E+04   0.149E-01 -.105E-01 -.285E+00   0.360E-03 -.114E-03 -.151E+00
   0.482E+01 0.405E+01 -.379E+04   -.487E+01 -.418E+01 0.379E+04   -.565E-02 0.234E-01 -.510E+00   0.143E-02 -.593E-04 -.302E+00
   -.153E+01 -.366E+01 -.381E+04   0.142E+01 0.391E+01 0.380E+04   0.411E-01 -.406E-01 0.136E+01   0.399E-03 -.928E-03 -.290E+00
   -.706E-02 0.105E-01 0.380E+04   0.748E-02 -.101E-01 -.380E+04   -.141E-03 -.644E-04 0.585E+00   0.494E-04 -.307E-04 0.318E+00
   -.815E-02 0.157E-04 0.398E+04   0.853E-02 0.109E-06 -.397E+04   -.752E-04 -.271E-05 -.420E+01   0.242E-04 -.125E-04 0.317E+00
   -.374E-01 0.115E+00 0.193E+04   0.392E-01 -.111E+00 -.193E+04   -.316E-03 -.962E-03 -.105E+00   -.993E-05 0.474E-04 0.205E+00
   0.519E-02 0.351E-04 0.192E+04   -.370E-02 0.923E-08 -.192E+04   -.359E-03 -.212E-05 0.232E+00   0.491E-04 -.336E-04 0.208E+00
   0.746E-01 0.836E-01 -.208E+02   -.725E-01 -.567E-01 0.217E+02   -.694E-03 -.263E-02 -.163E+00   0.101E-03 -.478E-04 0.430E-01
   -.641E-01 -.236E-04 -.729E+01   0.653E-01 0.109E-04 0.602E+01   0.126E-03 0.108E-05 0.370E+00   0.474E-04 0.142E-04 0.435E-01
   0.578E+00 -.238E+01 -.189E+04   -.589E+00 0.240E+01 0.189E+04   -.922E-03 -.363E-05 0.836E-01   0.183E-03 -.266E-03 -.139E+00
[...]
     12.99803      5.91519     21.63645         0.056914     -0.000005     -0.055090
      3.25100      7.39399      8.77438         0.000229      0.000360     -4.029432
      6.50199      8.87278      8.77438         0.000406      0.000391      3.245057
      6.50199      7.39399     12.02538         0.001997      0.006489      0.565109
      3.25100      8.87278     12.02538         0.000781      0.001475     -0.800892
      3.25100      7.39399     15.27637         0.005157      0.010254      0.763537
      6.50199      8.87278     15.27637         0.003954     -0.013199     -0.796934
      6.50240      7.38619     18.47406        -0.017111      0.075595     -0.072054
      3.25033      8.87420     18.65575        -0.019311      0.009967      0.192401
      3.24386      7.39778     21.99563        -0.060824     -0.112920      0.584770
      6.50385      8.87341     21.62432        -0.059920      0.198015     -0.086089
      3.25100     10.35158      8.77438         0.000371      0.000399     -4.029000
      6.50199      0.00000      8.77438         0.000380      0.000001      3.245623
      6.50199     10.35158     12.02538         0.001593      0.003041      0.569644
      3.25100      0.00000     12.02538         0.001233     -0.000001     -0.798569
      3.25100     10.35158     15.27637         0.001545      0.024972      0.786657
      6.50199      0.00000     15.27637         0.001461      0.000003     -0.860902
      6.50336     10.34801     18.44770        -0.011468      0.017877     -0.003324
      3.25175      0.00000     18.66118        -0.009663      0.000001      0.193518
      3.25512     10.35210     22.01349        -0.022931     -0.039432      0.457948
      6.50262     11.83038     21.62646        -0.024581     -0.000004     -0.042300
      3.25100      1.47880      8.77438         0.000373     -0.000400     -4.028998
      6.50199      2.95759      8.77438         0.000405     -0.000393      3.245060
      6.50199      1.47880     12.02538         0.001598     -0.003043      0.569644
      3.25100      2.95759     12.02538         0.000782     -0.001475     -0.800894
      3.25100      1.47880     15.27637         0.001548     -0.024971      0.786656
      6.50199      2.95759     15.27637         0.003954      0.013196     -0.796934
      6.50337      1.48237     18.44770        -0.011467     -0.017872     -0.003320
      3.25033      2.95618     18.65575        -0.019307     -0.009969      0.192400
      3.25512      1.47828     22.01349        -0.022932      0.039431      0.457944
      6.50385      2.95696     21.62432        -0.059924     -0.198008     -0.086099
      3.25100      4.43639      8.77438         0.000227     -0.000360     -4.029432
      6.50199      5.91519      8.77438         0.000429      0.000001      3.244517
      6.50199      4.43639     12.02538         0.001993     -0.006487      0.565108
      3.25100      5.91519     12.02538         0.000317      0.000001     -0.803093
      3.25100      4.43639     15.27637         0.005154     -0.010253      0.763538
      6.50199      5.91519     15.27637         0.006436     -0.000001     -0.807621
      6.50240      4.44419     18.47406        -0.017109     -0.075598     -0.072043
      3.24945      5.91519     18.65406        -0.030987     -0.000001      0.208902
      3.24386      4.43259     21.99563        -0.060825      0.112920      0.584762
      6.49443      5.91519     21.68051        -0.086172     -0.000002     -0.958888
      9.75299      8.87278      7.50000         0.000105     -0.000094      2.576019
      9.75299      8.87278     10.04877         0.000149     -0.000135      1.735195
      1.27438      7.39399      8.77438        -2.365528     -0.000049     -0.872686
     11.72960      7.39399      8.77438         2.366169     -0.000041     -0.872717
      0.00000      8.87278     10.75100         0.000289     -0.000197     -1.324874
      0.00000      8.87278     13.29976         0.000548     -0.000345     -0.297116
     11.02737      7.39399     12.02538         0.302986     -0.000169      0.061634
      1.97661      7.39399     12.02538        -0.300808     -0.000524      0.062518
      9.75299      8.87278     14.00199         0.000459     -0.000877      0.040055
      9.75299      8.87278     16.55076         0.000497     -0.003811     -0.232578
      1.27438      7.39399     15.27637        -0.728703     -0.001085      0.111650
     11.72960      7.39399     15.27637         0.739420     -0.000101      0.109520
     13.00365      8.87362     17.27325        -0.001801     -0.001927      0.190652
      0.00146      8.87206     19.83087        -0.004605      0.001087     -0.003632
     11.05659      7.39484     18.54811        -0.118951     -0.000585      0.035181
      1.94683      7.39551     18.54397         0.099880      0.001758      0.018069
      9.75704      8.87537     20.52030        -0.016475     -0.015521     -0.048390
      9.75026      8.87222     23.09560        -0.009678     -0.034571     -0.653583
      1.22299      7.39095     21.96823        -0.354312      0.006539     -0.068910
     11.78016      7.39452     21.96276         0.273914     -0.004546     -0.053672
      9.75299      0.00000      7.50000         0.000116      0.000000      2.576016
      9.75299      0.00000     10.04877         0.000201      0.000000      1.734996
      1.27438     10.35158      8.77438        -2.365601     -0.000057     -0.872705
     11.72960     10.35158      8.77438         2.366182     -0.000045     -0.872718
      0.00000      0.00000     10.75100         0.000273     -0.000002     -1.324965
      0.00000      0.00000     13.29976         0.000437     -0.000001     -0.297492
     11.02737     10.35158     12.02538         0.302928     -0.000210      0.061626
      1.97661     10.35158     12.02538        -0.301102     -0.000568      0.062274
      9.75299      0.00000     14.00199         0.000022      0.000001      0.039826
      9.75299      0.00000     16.55076         0.005376     -0.000001     -0.244139
      1.27438     10.35158     15.27637        -0.733624     -0.001960      0.109156
     11.72960     10.35158     15.27637         0.738420     -0.000505      0.108531
     13.00375      0.00000     17.27338        -0.001747     -0.000001      0.192084
      0.00161      0.00000     19.83096        -0.002120     -0.000001     -0.002060
     11.05707     10.35211     18.54948        -0.112885     -0.003828      0.032472
      1.94795     10.35315     18.54846         0.101309      0.002085      0.026782
      9.75403      0.00000     20.52096        -0.006536     -0.000001     -0.062003
      9.75661      0.00000     23.09675        -0.012541      0.000000     -0.657127
      1.22437     10.35045     21.96412        -0.336507      0.004870     -0.062663
     11.78194     10.35116     21.96027         0.298442     -0.001989     -0.052823
      9.75299      2.95759      7.50000         0.000105      0.000095      2.576016
      9.75299      2.95759     10.04877         0.000146      0.000137      1.735198
      1.27438      1.47880      8.77438        -2.365600      0.000057     -0.872704
     11.72960      1.47880      8.77438         2.366181      0.000046     -0.872717
      0.00000      2.95759     10.75100         0.000289      0.000198     -1.324876
      0.00000      2.95759     13.29976         0.000549      0.000345     -0.297119
     11.02737      1.47880     12.02538         0.302932      0.000211      0.061623
      1.97661      1.47880     12.02538        -0.301104      0.000570      0.062274
      9.75299      2.95759     14.00199         0.000459      0.000875      0.040057
      9.75299      2.95759     16.55076         0.000497      0.003814     -0.232577
      1.27438      1.47880     15.27637        -0.733623      0.001960      0.109155
     11.72960      1.47880     15.27637         0.738419      0.000505      0.108531
     13.00365      2.95676     17.27325        -0.001801      0.001928      0.190650
      0.00146      2.95831     19.83087        -0.004605     -0.001088     -0.003628
     11.05707      1.47827     18.54948        -0.112886      0.003828      0.032469
      1.94795      1.47723     18.54846         0.101307     -0.002086      0.026776
      9.75704      2.95501     20.52030        -0.016475      0.015523     -0.048396
      9.75026      2.95816     23.09560        -0.009678      0.034571     -0.653582
      1.22437      1.47993     21.96412        -0.336509     -0.004869     -0.062660
     11.78194      1.47922     21.96027         0.298442      0.001988     -0.052823
      9.75299      5.91519      7.50000         0.000097     -0.000001      2.576034
      9.75299      5.91519     10.04877         0.000108     -0.000002      1.735315
      1.27438      4.43639      8.77438        -2.365527      0.000049     -0.872685
     11.72960      4.43639      8.77438         2.366172      0.000041     -0.872717
      0.00000      5.91519     10.75100         0.000301      0.000001     -1.324801
      0.00000      5.91519     13.29976         0.000670     -0.000001     -0.296814
     11.02737      4.43639     12.02538         0.302986      0.000169      0.061636
      1.97661      4.43639     12.02538        -0.300811      0.000522      0.062519
      9.75299      5.91519     14.00199         0.001179      0.000001      0.040041
      9.75299      5.91519     16.55076        -0.002119     -0.000001     -0.224989
      1.27438      4.43639     15.27637        -0.728702      0.001085      0.111651
     11.72960      4.43639     15.27637         0.739420      0.000101      0.109520
     13.00331      5.91519     17.27303        -0.001276     -0.000001      0.189993
      0.00037      5.91519     19.83004        -0.006115      0.000002     -0.009301
     11.05659      4.43554     18.54811        -0.118954      0.000584      0.035179
      1.94683      4.43487     18.54397         0.099878     -0.001756      0.018064
      9.76171      5.91519     20.52099        -0.020042     -0.000001     -0.040112
      9.74203      5.91519     23.09365        -0.027640      0.000002     -0.622582
      1.22299      4.43943     21.96823        -0.354313     -0.006538     -0.068901
     11.78015      4.43586     21.96276         0.273913      0.004546     -0.053671
      3.25100      8.87278      7.50000        -0.000014     -0.000198      2.576359
      3.25100      8.87278     10.04877        -0.000054     -0.000288      1.736783
      7.77637      7.39399      8.77438        -2.365878     -0.000223     -0.872708
      5.22761      7.39399      8.77438         2.365438     -0.000239     -0.872505
      6.50199      8.87278     10.75100        -0.000192     -0.001492     -1.326061
      6.50199      8.87278     13.29976        -0.000526     -0.003115     -0.304597
      4.52538      7.39399     12.02538         0.300496     -0.000864      0.062360
      8.47860      7.39399     12.02538        -0.302519     -0.000508      0.061589
      3.25100      8.87278     14.00199        -0.000383     -0.006861      0.048441
      3.25100      8.87278     16.55076         0.001377     -0.007047     -0.233534
      7.77637      7.39399     15.27637        -0.736473     -0.015869      0.105899
      5.22761      7.39399     15.27637         0.724934     -0.016514      0.106747
      6.50150      8.86528     17.27285         0.001965     -0.003389      0.211654
      6.50574      8.88149     19.81981         0.001026     -0.028299      0.055343
      4.55183      7.39395     18.55534        -0.065456     -0.005421      0.027455
      8.45191      7.39350     18.55396         0.084927     -0.008875      0.032479
      3.23980      8.87651     20.51923         0.013117      0.003962     -0.100560
      3.25976      8.86639     23.09388        -0.026437      0.070817     -0.700831
      7.72631      7.40381     21.93980        -0.391381     -0.165316      0.122788
      5.26791      7.41322     21.91419         0.531957     -0.217453      0.134644
      3.25100      0.00000      7.50000        -0.000025     -0.000000      2.576328
      3.25100      0.00000     10.04877        -0.000114      0.000004      1.735957
      7.77637     10.35158      8.77438        -2.365796     -0.000204     -0.872818
      5.22761     10.35158      8.77438         2.365386     -0.000214     -0.872746
      6.50199      0.00000     10.75100        -0.000182     -0.000001     -1.327474
      6.50199      0.00000     13.29976        -0.000361     -0.000000     -0.312807
      4.52538     10.35158     12.02538         0.299374     -0.000698      0.061998
      8.47860     10.35158     12.02538        -0.301046     -0.000341      0.061413
      3.25100      0.00000     14.00199        -0.000132     -0.000000      0.044131
      3.25100      0.00000     16.55076         0.001082     -0.000001     -0.251541
      7.77637     10.35158     15.27637        -0.733835     -0.006701      0.111376
      5.22761     10.35158     15.27637         0.728779     -0.007923      0.110578
      6.50164      0.00000     17.26739         0.002720     -0.000001      0.194232
      6.50158      0.00000     19.82164         0.003920     -0.000001      0.014123
      4.55228     10.35125     18.54722        -0.088264     -0.002793      0.026122
      8.45165     10.35217     18.54564         0.101075     -0.003895      0.030432
      3.25167      0.00000     20.52412         0.004525     -0.000001     -0.094273
      3.24954      0.00000     23.09852         0.010993     -0.000001     -0.652489
      7.72680     10.35588     21.95662        -0.318203     -0.033061     -0.065579
      5.27833     10.35314     21.95788         0.360857     -0.026369     -0.080483
      3.25100      2.95759      7.50000        -0.000013      0.000198      2.576359
      3.25100      2.95759     10.04877        -0.000057      0.000285      1.736784
      7.77637      1.47880      8.77438        -2.365798      0.000203     -0.872819
      5.22761      1.47880      8.77438         2.365387      0.000214     -0.872746
      6.50199      2.95759     10.75100        -0.000193      0.001493     -1.326064
      6.50199      2.95759     13.29976        -0.000526      0.003115     -0.304597
      4.52538      1.47880     12.02538         0.299374      0.000697      0.061999
      8.47860      1.47880     12.02538        -0.301050      0.000341      0.061413
      3.25100      2.95759     14.00199        -0.000383      0.006859      0.048441
      3.25100      2.95759     16.55076         0.001377      0.007049     -0.233534
      7.77637      1.47880     15.27637        -0.733833      0.006702      0.111376
      5.22761      1.47880     15.27637         0.728778      0.007923      0.110576
      6.50150      2.96510     17.27285         0.001965      0.003388      0.211677
      6.50574      2.94888     19.81981         0.001026      0.028300      0.055317
      4.55228      1.47912     18.54722        -0.088264      0.002793      0.026122
      8.45165      1.47820     18.54564         0.101075      0.003893      0.030429
      3.23980      2.95387     20.51923         0.013120     -0.003961     -0.100572
      3.25976      2.96399     23.09388        -0.026437     -0.070819     -0.700820
      7.72680      1.47450     21.95662        -0.318203      0.033060     -0.065593
      5.27833      1.47724     21.95788         0.360860      0.026367     -0.080488
      3.25100      5.91519      7.50000        -0.000007      0.000000      2.576413
      3.25100      5.91519     10.04877        -0.000015      0.000002      1.737426
      7.77637      4.43639      8.77438        -2.365877      0.000224     -0.872708
      5.22761      4.43639      8.77438         2.365440      0.000240     -0.872507
      6.50199      5.91519     10.75100        -0.000204      0.000000     -1.324211
      6.50199      5.91519     13.29976        -0.000689     -0.000001     -0.281650
      4.52538      4.43639     12.02538         0.300498      0.000864      0.062360
      8.47860      4.43639     12.02538        -0.302518      0.000508      0.061589
      3.25100      5.91519     14.00199        -0.001131      0.000001      0.051872
      3.25100      5.91519     16.55076         0.004429     -0.000000     -0.234196
      7.77637      4.43639     15.27637        -0.736473      0.015869      0.105898
      5.22761      4.43639     15.27637         0.724935      0.016515      0.106746
      6.50147      5.91519     17.27907         0.002976      0.000001      0.234263
      6.50360      5.91519     19.84831         0.007772     -0.000001      0.240199
      4.55183      4.43643     18.55534        -0.065457      0.005421      0.027456
      8.45191      4.43688     18.55396         0.084927      0.008876      0.032480
      3.23067      5.91519     20.51474         0.017926     -0.000000     -0.130237
      3.29587      5.91519     23.08645        -0.115967      0.000002     -0.802549
      7.72631      4.42656     21.93980        -0.391379      0.165317      0.122760
      5.26791      4.41716     21.91419         0.531957      0.217453      0.134602
 -----------------------------------------------------------------------------------
    total drift:                               -0.011100     -0.000008     -0.510211


--------------------------------------------------------------------------------------------------------



  FREE ENERGIE OF THE ION-ELECTRON SYSTEM (eV)
  ---------------------------------------------------
  free  energy   TOTEN  =     -2619.12000179 eV

  energy  without entropy=    -2619.12000179  energy(sigma->0) =    -2619.12000179
 


--------------------------------------------------------------------------------------------------------


    POTLOK:  cpu time     16.0714: real time     16.2446


--------------------------------------------------------------------------------------------------------


     LOOP+:  cpu time  19568.9810: real time  19640.7544
    4ORBIT:  cpu time      0.0000: real time      0.0000

 total amount of memory used by VASP MPI-rank0  3746575. kBytes
=======================================================================

   base      :      30000. kBytes
   nonlr-proj:     100457. kBytes
   fftplans  :      51280. kBytes
   grid      :     109383. kBytes
   one-center:       3732. kBytes
   HF        :        129. kBytes
   wavefun   :    1769146. kBytes
   fock_wrk  :    1682448. kBytes
 
  
  
 General timing and accounting informations for this job:
 ========================================================
  
                  Total CPU time used (sec):    19589.016
                            User time (sec):    19234.093
                          System time (sec):      354.922
                         Elapsed time (sec):    19664.055
  
                   Maximum memory used (kb):     6458364.
                   Average memory used (kb):          N/A
  
                          Minor page faults:       362778
                          Major page faults:            0
                 Voluntary context switches:       220648


                    ____  _____ _____     ____  _  _
      -------------|  _ \|  ___|_   _|---|  _ \| || |------------
     |             | | | | |_    | | ___ | | | | || |_           |
     |             | |_| |  _|   | ||___|| |_| |__   _|          |
     |             |____/|_|     |_|     |____/   |_|            |
     |             ===================================           |
     |            E. Caldeweyher, S. Ehlert & S. Grimme          |
     |          Mulliken Center for Theoretical Chemistry        |
     |                    University of Bonn                     |
      ----------------------------------------------------------- 

Rational (Becke-Johnson) damping: hse06-D4-ATM
---------------------
  s6         1.0000
  s8         1.1953
  s9         1.0000
  a1         0.3866
  a2         5.1913
 alp        16.0000
--------------------

Dispersion energy:      -1.4328738603550E+00 Eh

