 **********************************************************************
                          MRCC program system
 **********************************************************************
 
                              Written by
     Mihaly Kallay, Peter R. Nagy, David Mester, Laszlo Gyevi-Nagy,
        Jozsef Csoka, P. Bernat Szabo, Zoltan Rolik, Gyula Samu,
     Jozsef Csontos, Bence Hegely, Adam Ganyecz, Istvan Ladjanszki,
       Lorant Szegedy, Bence Ladoczki, Klara Petrov, Mate Farkas,
                    Pal D. Mezei, and Reka A. Horvath
 
        Department of Physical Chemistry and Materials Science
            Budapest University of Technology and Economics
                  Budapest P.O.Box 91, H-1521 Hungary
 
                              www.mrcc.hu
 
                      Release date: March 18, 2022

 ************************ 2023-02-05 13:13:14 *************************
 Executing minp...

 Reading input from MINP...
 
 Input file:
 
calc=FNO-CCSD(T)
verbosity=3
mem=220GB
unit=angs
scfiguess=small
scfalg=locfit1
ccmaxit=400
ccsdalg=dfdirect
ccsdthreads=4
ccsdmkl=thr
ptthreads=4
lnoepsv=1e-5
naf_cor=1e-2
basis=aug-cc-pVTZ
basis_sm=def2-SVP
dfbasis_scf=def2-QZVPP-RI-JK
dfbasis_cor=aug-cc-pVTZ-RI
unit=angs
geom=xyz
16

C    34.41670262    34.07107264    10.41543014
C    33.11117461    33.45680459    10.91530835
H    34.24160149    35.00442132     9.86225048
H    34.94674030    33.36940783     9.75379242
H    35.10002891    34.30603621    11.24227357
H    32.42643037    33.26105434    10.07939442
H    32.59136835    34.12756100    11.61262818
H    33.28915165    32.50678735    11.43686767
C    37.30146626    19.29955203    10.40840413
C    38.60118185    18.68571206    10.92356358
H    36.77618205    18.59535713     9.74574003
H    37.48351459    20.23050918     9.85293887
H    36.61042211    19.54015601    11.22701403
H    39.29509061    18.48905250    10.09557036
H    38.41693812    17.73619002    11.44395536
H    39.11327959    19.35730320    11.62583355

--------------------Output has been truncated-------------------------


--------------------Output has been truncated-------------------------


--------------------Output has been truncated-------------------------


--------------------Output has been truncated-------------------------


--------------------Output has been truncated-------------------------


--------------------Output has been truncated-------------------------


--------------------Output has been truncated-------------------------


--------------------Output has been truncated-------------------------


--------------------Output has been truncated-------------------------


--------------------Output has been truncated-------------------------


 
 Reference energy [au]:                       -79.259538717411
 DF-MP2 singlet pair energy [au]:              -0.300255257469
 DF-MP2 triplet pair energy [au]:              -0.075031937523
 DF-SCS-MP2 correlation energy [au]:           -0.385316954804
 DF-SCS-MP2 energy [au]:                      -79.644855672215
 DF-SOS-MP2 correlation energy [au]:           -0.390331834710
 DF-SOS-MP2 energy [au]:                      -79.649870552121
 DF-MP2 correlation energy [au]:               -0.375287194992
 DF-MP2 energy [au]:                          -79.634825912403

 Results in FNO basis:
 
 
 Reference energy [au]:                       -79.259538717411
 DF-MP2 singlet pair energy [au]:              -0.299085038738
 DF-MP2 triplet pair energy [au]:              -0.074925664739
 DF-SCS-MP2 correlation energy [au]:           -0.383877268065
 DF-SCS-MP2 energy [au]:                      -79.643415985477
 DF-SOS-MP2 correlation energy [au]:           -0.388810550360
 DF-SOS-MP2 energy [au]:                      -79.648349267771
 DF-MP2 correlation energy [au]:               -0.374010703477
 DF-MP2 energy [au]:                          -79.633549420889

 Results in NAF basis:
 
 
 Reference energy [au]:                       -79.259538717411
 DF-MP2 singlet pair energy [au]:              -0.299024264494
 DF-MP2 triplet pair energy [au]:              -0.074964722875
 DF-SCS-MP2 correlation energy [au]:           -0.383817358351
 DF-SCS-MP2 energy [au]:                      -79.643356075762
 DF-SOS-MP2 correlation energy [au]:           -0.388731543842
 DF-SOS-MP2 energy [au]:                      -79.648270261253
 DF-MP2 correlation energy [au]:               -0.373988987369
 DF-MP2 energy [au]:                          -79.633527704780

 ************************ 2023-02-05 13:13:44 *************************
 Executing ccsd...

 Allocation of 220.0 Gbytes of memory...

 Direct DF-CCSD(T) calculation
 
 Convergence criterion:  1.0E-06
 
 Number of occupied/virtual/auxiliary orbitals:     7   139   378
    421.21 MB is the minimal memory requirement for (T)
     94.89 MB is the minimal memory requirement for CCSD
 
 Reference energy [au]:             -79.259538717411
 T1 contribution [au]:                0.000000000000
 Same spin MP2 energy [au]:          -0.074945134597
 Opposite spin MP2 energy [au]:      -0.299054480778
 MP2 correlation energy [au]:        -0.373999615375
 Total MP2 energy [au]:             -79.633538332786
 MP2 correction [au]:                -0.001287579617
 
 
 CPU time [min]:     0.319                   Wall time [min]:     0.016
 
 Starting CCSD iterations...
 
                     Residual norm          Energy
 Iteration  1        0.170711935577      -79.654466767228
 Iteration  2        0.042453936852      -79.664031878445
 Iteration  3        0.011296830224      -79.664987986162
 Iteration  4        0.002548602002      -79.664996301156
 Iteration  5        0.000536675096      -79.665001510304
 Iteration  6        0.000152294475      -79.665004587444
 Iteration  7        0.000036259056      -79.665004372009
 Iteration  8        0.000009249915      -79.665004663649
 
 CCSD iteration has converged in  8 steps.
     1534.57 MB memory was utilized by CCSD
 
 T1 diagnostic:      7.817E-03            D1 diagnostic:      1.354E-02
 
 T1 contribution [au]:                                  0.000000000000
 PPL energy contribution [au]:                          0.102912261180
 Scaled PPL energy contribution [au]:                   0.103270992955

 OS-PPL energy contribution [au]:                       0.089962008894
 Scaled OS-PPL energy contribution [au]:                0.090333117747
 SS-PPL energy contribution [au]:                       0.012950252285
 Scaled SS-PPL energy contribution [au]:                0.012962078206

 Opposite spin CCSD energy [au]:                       -0.334285247858
 Same spin CCSD energy [au]:                           -0.071199388158
 CCSD correlation energy [au]:                         -0.405484636016
 CCSD correlation energy + MP2 correction [au]:        -0.406772215633
 CCSD correlation energy + MP2 + PPL corr. [au]:       -0.406413483858
 Total CCSD energy [au]:                              -79.665023353428
 Total CCSD energy + MP2 correction [au]:             -79.666310933045
 Total CCSD energy + MP2 + PPL corr. [au]:            -79.665952201270
 
 CPU time [min]:     2.766                   Wall time [min]:     0.088
 
 Calculation of (T) correction...
 
 
      388.93 MB memory is utilized for (T)

 0%       25%       50%       75%       100%
 |---------|---------|---------|---------| 
 
 (T) correction [au]:                                    -0.013959015386
 (T*) correction [au]:                                   -0.014007072504
 (T+) correction [au]:                                   -0.014006491045
 CCSD(T) correlation energy [au]:                        -0.419443651402
 CCSD(T) correlation energy + MP2 correction [au]:       -0.420731231019
 CCSD(T+) correlation en. + MP2 + PPL corr. [au]:        -0.420419974903
 Total CCSD(T) energy [au]:                             -79.678982368814
 Total CCSD(T) energy + MP2 correction [au]:            -79.680269948431
 Total CCSD(T+) energy + MP2 + PPL corr. [au]:          -79.679958692315
 
 CPU time [min]:     3.464                   Wall time [min]:     0.110
 
 ************************ 2023-02-05 13:13:51 *************************
                      Normal termination of mrcc.
 **********************************************************************
