 vasp.6.3.0 20Jan22 (build Apr  1 2022 16:44:48) complex                         
 executed on        HPECrayEX_GCC date 2022.11.13  01:03:49
 running  512 mpi-ranks, with    1 threads/rank
 distrk:  each k-point on  512 cores,    1 groups
 distr:  one band on NCORE=   8 cores,   64 groups


--------------------------------------------------------------------------------------------------------


 INCAR:
   SYSTEM = MgO-rocksalt
   ISMEAR = 0
   SIGMA = 0.05
   EDIFF = 1E-6
   ALGO = ALL
   ISTART = 0
   IBRION = -1
   NSW = 0
   ISYM = 0
   DIPOL = 0.5 0.5 0.5
   IDIPOL = 3
   LDIPOL = .TRUE.
   GGA = RE
   AGGAC = 0.0
   LUSE_VDW = .TRUE.
   LASPH = .TRUE.
   ENCUT = 600
   PREC = Accurate
   LASPH = .TRUE.
   LREAL = .FALSE.
   ISPIN = 1
   NELM = 200
   NELMIN = 8
   NCORE = 8
   KPAR = 1
   LWAVE = .FALSE.
   LCHARG = .FALSE.

 POTCAR:    PAW_PBE Mg_pv 13Apr2007               
 POTCAR:    PAW_PBE O 08Apr2002                   
 -----------------------------------------------------------------------------
|                                                                             |
|               ----> ADVICE to this user running VASP <----                  |
|                                                                             |
|     You have switched on vdW-DFT.                                           |
|     This routine was written and supplied by Jiri Klimes. We recommend      |
|     that you carefully read and cite the following publications:            |
|       J. Klimes, D.R. Bowler, A. Michelides                                 |
|          J. Phys.: Cond Matt. 22 022201 (2010)                              |
|       J. Klimes, D.R. Bowler, A. Michelides                                 |
|          Phys. Rev. B. 83, 195131 (2011)                                    |
|     and references therein.                                                 |
|                                                                             |
 -----------------------------------------------------------------------------

 POTCAR:    PAW_PBE Mg_pv 13Apr2007               
   SHA256 =  f474ac0dd33840b9ae76c01d57fea79fdf77cdfbb07d5ade72c65f83c709b62b Mg_pv/POTCAR          
   COPYR  = (c) Copyright 13Apr2007 Georg Kresse                                                    
   COPYR  = This file is part of the software VASP. Any use, copying, and all other rights are regul
   COPYR  = If you do not have a valid VASP license, you may not use, copy or distribute this file. 
   VRHFIN =Mg: p6s2                                                                                 
   LEXCH  = PE                                                                                      
   EATOM  =  1056.7344 eV,   77.6678 Ry                                                             
                                                                                                    
   TITEL  = PAW_PBE Mg_pv 13Apr2007                                                                 
   LULTRA =        F    use ultrasoft PP ?                                                          
   IUNSCR =        1    unscreen: 0-lin 1-nonlin 2-no                                               
   RPACOR =    1.500    partial core radius                                                         
   POMASS =   24.305; ZVAL   =    8.000    mass and valenz                                          
   RCORE  =    2.000    outmost cutoff radius                                                       
   RWIGS  =    2.000; RWIGS  =    1.058    wigner-seitz radius (au A)                               
   ENMAX  =  403.929; ENMIN  =  302.947 eV                                                          
   RCLOC  =    1.506    cutoff for local pot                                                        
   LCOR   =        T    correct aug charges                                                         
   LPAW   =        T    paw PP                                                                      
   EAUG   =  758.780                                                                                
   DEXC   =    0.000                                                                                
   RMAX   =    2.045    core radius for proj-oper                                                   
   RAUG   =    1.300    factor for augmentation sphere                                              
   RDEP   =    2.025    radius for radial grids                                                     
   RDEPT  =    1.557    core radius for aug-charge                                                  
                                                                                                    
   Atomic configuration                                                                             
    5 entries                                                                                       
     n  l   j            E        occ.                                                              
     1  0  0.50     -1259.6230   2.0000                                                             
     2  0  0.50       -79.8442   2.0000                                                             
     2  1  1.50       -46.6121   6.0000                                                             
     3  0  0.50        -4.7055   2.0000                                                             
     3  2  1.50        -1.3606   0.0000                                                             
   Description                                                                                      
     l       E           TYP  RCUT    TYP  RCUT                                                     
     1    -46.6121073     23  1.600                                                                 
     1      2.7211652     23  1.600                                                                 
     0     -4.7054661     23  2.000                                                                 
     0     61.2262170     23  2.000                                                                 
     2     -1.3605826     23  2.000                                                                 
  local pseudopotential read in
  partial core-charges read in
  partial kinetic energy density read in
  atomic valenz-charges read in
  non local Contribution for L=           1  read in
    real space projection operators read in
  non local Contribution for L=           1  read in
    real space projection operators read in
  non local Contribution for L=           0  read in
    real space projection operators read in
  non local Contribution for L=           0  read in
    real space projection operators read in
  non local Contribution for L=           2  read in
    real space projection operators read in
    PAW grid and wavefunctions read in

   number of l-projection  operators is LMAX  =           5
   number of lm-projection operators is LMMAX =          13

 POTCAR:    PAW_PBE O 08Apr2002                   
   SHA256 =  818f92134a0a090dccd8ba1447fa70422a3b330e708bb4f08108d8ae51209ddf O/POTCAR              
   COPYR  = (c) Copyright 08Apr2002 Georg Kresse                                                    
   COPYR  = This file is part of the software VASP. Any use, copying, and all other rights are regul
   COPYR  = If you do not have a valid VASP license, you may not use, copy or distribute this file. 
   VRHFIN =O: s2p4                                                                                  
   LEXCH  = PE                                                                                      
   EATOM  =   432.3788 eV,   31.7789 Ry                                                             
                                                                                                    
   TITEL  = PAW_PBE O 08Apr2002                                                                     
   LULTRA =        F    use ultrasoft PP ?                                                          
   IUNSCR =        1    unscreen: 0-lin 1-nonlin 2-no                                               
   RPACOR =    1.200    partial core radius                                                         
   POMASS =   16.000; ZVAL   =    6.000    mass and valenz                                          
   RCORE  =    1.520    outmost cutoff radius                                                       
   RWIGS  =    1.550; RWIGS  =    0.820    wigner-seitz radius (au A)                               
   ENMAX  =  400.000; ENMIN  =  300.000 eV                                                          
   ICORE  =        2    local potential                                                             
   LCOR   =        T    correct aug charges                                                         
   LPAW   =        T    paw PP                                                                      
   EAUG   =  605.392                                                                                
   DEXC   =    0.000                                                                                
   RMAX   =    1.553    core radius for proj-oper                                                   
   RAUG   =    1.300    factor for augmentation sphere                                              
   RDEP   =    1.550    radius for radial grids                                                     
   RDEPT  =    1.329    core radius for aug-charge                                                  
                                                                                                    
   Atomic configuration                                                                             
    4 entries                                                                                       
     n  l   j            E        occ.                                                              
     1  0  0.50      -514.6923   2.0000                                                             
     2  0  0.50       -23.9615   2.0000                                                             
     2  1  0.50        -9.0305   4.0000                                                             
     3  2  1.50        -9.5241   0.0000                                                             
   Description                                                                                      
     l       E           TYP  RCUT    TYP  RCUT                                                     
     0    -23.9615318     23  1.200                                                                 
     0     -9.5240782     23  1.200                                                                 
     1     -9.0304911     23  1.520                                                                 
     1      8.1634956     23  1.520                                                                 
     2     -9.5240782      7  1.500                                                                 
  local pseudopotential read in
  partial core-charges read in
  partial kinetic energy density read in
  kinetic energy density of atom read in
  atomic valenz-charges read in
  non local Contribution for L=           0  read in
    real space projection operators read in
  non local Contribution for L=           0  read in
    real space projection operators read in
  non local Contribution for L=           1  read in
    real space projection operators read in
  non local Contribution for L=           1  read in
    real space projection operators read in
    PAW grid and wavefunctions read in

   number of l-projection  operators is LMAX  =           4
   number of lm-projection operators is LMMAX =           8

 -----------------------------------------------------------------------------
|                                                                             |
|               ----> ADVICE to this user running VASP <----                  |
|                                                                             |
|     You have a (more or less) 'large supercell' and for larger cells it     |
|     might be more efficient to use real-space projection operators.         |
|     Therefore, try LREAL= Auto in the INCAR file.                           |
|     Mind: For very accurate calculation, you might also keep the            |
|     reciprocal projection scheme (i.e. LREAL=.FALSE.).                      |
|                                                                             |
 -----------------------------------------------------------------------------

 -----------------------------------------------------------------------------
|                                                                             |
|               ----> ADVICE to this user running VASP <----                  |
|                                                                             |
|     You enforced a specific xc type in the INCAR file but a different       |
|     type was found in the POTCAR file.                                      |
|     I HOPE YOU KNOW WHAT YOU ARE DOING!                                     |
|                                                                             |
 -----------------------------------------------------------------------------

  PAW_PBE Mg_pv 13Apr2007               :
 energy of atom  1       EATOM=-1056.7344
 kinetic energy error for atom=    0.0221 (will be added to EATOM!!)
  PAW_PBE O 08Apr2002                   :
 energy of atom  2       EATOM= -432.3788
 kinetic energy error for atom=    0.0168 (will be added to EATOM!!)


 POSCAR: Mg  O
  positions in direct lattice
  No initial velocities read in
 exchange correlation table for  LEXCH =       40
   RHO(1)=    0.500       N(1)  =     2000
   RHO(2)=  100.500       N(2)  =     4000



--------------------------------------------------------------------------------------------------------


 ion  position               nearest neighbor table
   1  0.250  0.000  0.353-  35 2.09  36 2.09  43 2.09  52 2.09  33 2.09
   2  0.500  0.250  0.353-  35 2.09  36 2.09  44 2.09  51 2.09  34 2.09
   3  0.250  0.250  0.451-  33 2.09  34 2.09  41 2.09  50 2.09  35 2.09  39 2.10
   4  0.500  0.000  0.451-  40 2.09  34 2.09  33 2.09  42 2.09  49 2.09  36 2.09
   5  0.250  0.000  0.549-  40 2.08  56 2.09  39 2.09  33 2.09  47 2.09  37 2.12
   6  0.500  0.251  0.550-  48 2.08  38 2.09  55 2.09  39 2.09  40 2.10  34 2.11
   7  0.250  0.247  0.647-  37 2.07  39 2.07  38 2.09  54 2.09  45 2.12
   8  0.500  0.000  0.647-  38 2.07  46 2.08  40 2.08  53 2.09  37 2.09
   9  0.250  0.500  0.353-  35 2.09  43 2.09  44 2.09  60 2.09  41 2.09
  10  0.500  0.750  0.353-  36 2.09  43 2.09  44 2.09  59 2.09  42 2.09
  11  0.250  0.750  0.451-  33 2.09  41 2.09  42 2.09  58 2.09  43 2.09  47 2.10
  12  0.500  0.500  0.451-  34 2.09  41 2.09  42 2.09  57 2.09  44 2.09  48 2.11
  13  0.251  0.500  0.550-  48 2.07  39 2.08  47 2.08  64 2.09  41 2.11  45 2.17
  14  0.500  0.749  0.550-  48 2.08  63 2.09  47 2.09  40 2.09  46 2.11  42 2.11
  15  0.249  0.753  0.646-  47 2.06  37 2.06  62 2.08  46 2.09  45 2.11
  16  0.507  0.499  0.652-  61 2.05  38 2.10  46 2.11  48 2.17  45 2.18
  17  0.750  0.000  0.353-  36 2.09  51 2.09  52 2.09  59 2.09  49 2.09
  18  0.000  0.250  0.353-  35 2.09  51 2.09  52 2.09  60 2.09  50 2.09
  19  0.750  0.250  0.451-  34 2.09  49 2.09  50 2.09  57 2.09  51 2.09  55 2.09
  20  0.000  0.000  0.451-  33 2.09  49 2.09  50 2.09  58 2.09  52 2.09  56 2.09
  21  0.750  0.000  0.549-  40 2.09  55 2.09  63 2.09  56 2.09  49 2.09  53 2.12
  22  1.000  0.250  0.550-  55 2.08  39 2.09  64 2.09  56 2.09  50 2.10  54 2.12
  23  0.750  0.249  0.647-  53 2.08  55 2.08  38 2.09  54 2.09  61 2.10
  24  0.999  0.000  0.647-  56 2.08  53 2.08  54 2.08  62 2.08  37 2.09
  25  0.750  0.500  0.353-  44 2.09  51 2.09  59 2.09  60 2.09  57 2.09
  26  0.000  0.750  0.353-  43 2.09  52 2.09  59 2.09  60 2.09  58 2.09
  27  0.750  0.750  0.451-  42 2.09  49 2.09  57 2.09  58 2.09  59 2.09  63 2.09
  28  0.000  0.500  0.451-  41 2.09  50 2.09  57 2.09  58 2.09  60 2.09  64 2.10
  29  0.749  0.500  0.550-  48 2.08  55 2.09  63 2.09  64 2.10  57 2.10  61 2.12
  30  1.000  0.750  0.550-  63 2.08  64 2.09  47 2.09  56 2.09  58 2.10  62 2.12
  31  0.750  0.751  0.647-  63 2.08  53 2.08  62 2.09  46 2.09  61 2.09
  32  0.998  0.500  0.647-  61 2.05  45 2.07  64 2.08  54 2.09  62 2.09
  33  0.250  0.000  0.451-   3 2.09   4 2.09  11 2.09  20 2.09   1 2.09   5 2.09
  34  0.500  0.250  0.451-   3 2.09   4 2.09  12 2.09  19 2.09   2 2.09   6 2.11
  35  0.250  0.250  0.353-   1 2.09   2 2.09   9 2.09  18 2.09   3 2.09
  36  0.500  0.000  0.353-   1 2.09   2 2.09  10 2.09  17 2.09   4 2.09
  37  0.250  1.000  0.649-  15 2.06   7 2.07  24 2.09   8 2.09   5 2.12
  38  0.500  0.248  0.648-   8 2.07   7 2.09   6 2.09  23 2.09  16 2.10
  39  0.250  0.251  0.550-   7 2.07  13 2.08  22 2.09   5 2.09   6 2.09   3 2.10
  40  0.500  1.000  0.549-   8 2.08   5 2.08   4 2.09  21 2.09  14 2.09   6 2.10
  41  0.250  0.500  0.451-   3 2.09  11 2.09  12 2.09  28 2.09   9 2.09  13 2.11
  42  0.500  0.750  0.451-   4 2.09  11 2.09  12 2.09  27 2.09  10 2.09  14 2.11
  43  0.250  0.750  0.353-   1 2.09   9 2.09  10 2.09  26 2.09  11 2.09
  44  0.500  0.500  0.353-   2 2.09   9 2.09  10 2.09  25 2.09  12 2.09
  45  0.245  0.500  0.652-  32 2.07  15 2.11   7 2.12  13 2.17  16 2.18
  46  0.500  0.752  0.649-   8 2.08  15 2.09  31 2.09  14 2.11  16 2.11
  47  0.250  0.749  0.549-  15 2.06  13 2.08  30 2.09  14 2.09   5 2.09  11 2.10
  48  0.499  0.500  0.550-  13 2.07  14 2.08   6 2.08  29 2.08  12 2.11  16 2.17
  49  0.750  0.000  0.451-   4 2.09  19 2.09  20 2.09  27 2.09  17 2.09  21 2.09
  50  0.000  0.250  0.451-   3 2.09  19 2.09  20 2.09  28 2.09  18 2.09  22 2.10
  51  0.750  0.250  0.353-   2 2.09  17 2.09  18 2.09  25 2.09  19 2.09
  52  0.000  0.000  0.353-   1 2.09  17 2.09  18 2.09  26 2.09  20 2.09
  53  0.750  1.000  0.649-  31 2.08  24 2.08  23 2.08   8 2.09  21 2.12
  54  0.000  0.249  0.649-  24 2.08  23 2.09   7 2.09  32 2.09  22 2.12
  55  0.750  0.250  0.549-  22 2.08  23 2.08  29 2.09  21 2.09   6 2.09  19 2.09
  56  0.000  1.000  0.549-  24 2.08   5 2.09  30 2.09  22 2.09  21 2.09  20 2.09
  57  0.750  0.500  0.451-  12 2.09  19 2.09  27 2.09  28 2.09  25 2.09  29 2.10
  58  0.000  0.750  0.451-  11 2.09  20 2.09  27 2.09  28 2.09  26 2.09  30 2.10
  59  0.750  0.750  0.353-  10 2.09  17 2.09  25 2.09  26 2.09  27 2.09
  60  0.000  0.500  0.353-   9 2.09  18 2.09  25 2.09  26 2.09  28 2.09
  61  0.752  0.500  0.649-  32 2.05  16 2.05  31 2.09  23 2.10  29 2.12
  62  1.000  0.751  0.649-  24 2.08  15 2.08  31 2.09  32 2.09  30 2.12
  63  0.750  0.750  0.549-  31 2.08  30 2.08  14 2.09  29 2.09  21 2.09  27 2.09
  64  0.001  0.500  0.549-  32 2.08  30 2.09  22 2.09  13 2.09  28 2.10  29 2.10


IMPORTANT INFORMATION: All symmetrisations will be switched off!
NOSYMM: (Re-)initialisation of all symmetry stuff for point group C_1.


----------------------------------------------------------------------------------------

                                     Primitive cell                                     

  volume of cell :    1482.1129

  direct lattice vectors                    reciprocal lattice vectors
     8.349111827  0.000000000  0.000000000     0.119773219  0.000000000  0.000000000
     0.000000000  8.349111827  0.000000000     0.000000000  0.119773219  0.000000000
     0.000000000  0.000000000 21.261833870     0.000000000  0.000000000  0.047032632

  length of vectors
     8.349111827  8.349111827 21.261833870     0.119773219  0.119773219  0.047032632

  position of ions in fractional coordinates (direct lattice)
     0.250000000  0.000000000  0.352744737
     0.500000000  0.250000000  0.352744737
     0.250000000  0.250000000  0.450914912
     0.500000000  0.000000000  0.450914912
     0.250227883  0.000187923  0.549322304
     0.500190670  0.250922993  0.549981269
     0.250170031  0.247307299  0.646969261
     0.500456821  0.000351607  0.646757370
     0.250000000  0.500000000  0.352744737
     0.500000000  0.750000000  0.352744737
     0.250000000  0.750000000  0.450914912
     0.500000000  0.500000000  0.450914912
     0.251008758  0.499803780  0.549970062
     0.500240848  0.748907207  0.550026247
     0.249454202  0.752708188  0.646202182
     0.506551502  0.498977220  0.652478451
     0.750000000  0.000000000  0.352744737
     0.000000000  0.250000000  0.352744737
     0.750000000  0.250000000  0.450914912
     0.000000000  0.000000000  0.450914912
     0.749762177  0.000067976  0.549447066
     0.999808952  0.250125476  0.549627130
     0.749837147  0.249030027  0.647240497
     0.999481469  0.000089173  0.647102148
     0.750000000  0.500000000  0.352744737
     0.000000000  0.750000000  0.352744737
     0.750000000  0.750000000  0.450914912
     0.000000000  0.500000000  0.450914912
     0.749139578  0.499867307  0.549871136
     0.999663208  0.749818477  0.549526307
     0.750171706  0.750844408  0.647018700
     0.997607772  0.499810301  0.647115235
     0.250000000  0.000000000  0.450914912
     0.500000000  0.250000000  0.450914912
     0.250000000  0.250000000  0.352744737
     0.500000000  0.000000000  0.352744737
     0.249619794  0.999762896  0.649259659
     0.499933278  0.248026973  0.648109944
     0.249591690  0.250592519  0.549539662
     0.499808641  0.999689109  0.549026183
     0.250000000  0.500000000  0.450914912
     0.500000000  0.750000000  0.450914912
     0.250000000  0.750000000  0.352744737
     0.500000000  0.500000000  0.352744737
     0.244978237  0.500317530  0.652008358
     0.499748173  0.751648347  0.649056826
     0.249703572  0.749376129  0.549452493
     0.499479801  0.500123746  0.550327091
     0.750000000  0.000000000  0.450914912
     0.000000000  0.250000000  0.450914912
     0.750000000  0.250000000  0.352744737
     0.000000000  0.000000000  0.352744737
     0.750277162  0.999813170  0.649344883
     0.000001646  0.249310822  0.649465781
     0.750424724  0.250030465  0.549292391
     0.000170891  0.999905781  0.549248207
     0.750000000  0.500000000  0.450914912
     0.000000000  0.750000000  0.450914912
     0.750000000  0.750000000  0.352744737
     0.000000000  0.500000000  0.352744737
     0.752159835  0.500113464  0.649459675
     0.999990277  0.750612363  0.649454314
     0.750232090  0.749901570  0.549332483
     0.000535025  0.500038769  0.549497338

  ion indices of the primitive-cell ions
   primitive index   ion index
                 1           1
                 2           2
                 3           3
                 4           4
                 5           5
                 6           6
                 7           7
                 8           8
                 9           9
                10          10
                11          11
                12          12
                13          13
                14          14
                15          15
                16          16
                17          17
                18          18
                19          19
                20          20
                21          21
                22          22
                23          23
                24          24
                25          25
                26          26
                27          27
                28          28
                29          29
                30          30
                31          31
                32          32
                33          33
                34          34
                35          35
                36          36
                37          37
                38          38
                39          39
                40          40
                41          41
                42          42
                43          43
                44          44
                45          45
                46          46
                47          47
                48          48
                49          49
                50          50
                51          51
                52          52
                53          53
                54          54
                55          55
                56          56
                57          57
                58          58
                59          59
                60          60
                61          61
                62          62
                63          63
                64          64

----------------------------------------------------------------------------------------



 KPOINTS: pymatgen v2020.8.13 with grid density = 

Automatic generation of k-mesh.
 Grid dimensions read from file:
 generate k-points for:    2    2    1

 Generating k-lattice:

  Cartesian coordinates                     Fractional coordinates (reciprocal lattice)
     0.059886610  0.000000000  0.000000000     0.500000000  0.000000000  0.000000000
     0.000000000  0.059886610  0.000000000     0.000000000  0.500000000  0.000000000
     0.000000000  0.000000000  0.047032632     0.000000000  0.000000000  1.000000000

  Length of vectors
     0.059886610  0.059886610  0.047032632

  Shift w.r.t. Gamma in fractional coordinates (k-lattice)
     0.000000000  0.000000000  0.000000000

 
 Subroutine IBZKPT returns following result:
 ===========================================
 
 Found      4 irreducible k-points:
 
 Following reciprocal coordinates:
            Coordinates               Weight
  0.000000  0.000000  0.000000      1.000000
  0.500000  0.000000  0.000000      1.000000
  0.000000  0.500000  0.000000      1.000000
  0.500000  0.500000  0.000000      1.000000
 
 Following cartesian coordinates:
            Coordinates               Weight
  0.000000  0.000000  0.000000      1.000000
  0.059887  0.000000  0.000000      1.000000
  0.000000  0.059887  0.000000      1.000000
  0.059887  0.059887  0.000000      1.000000
 


--------------------------------------------------------------------------------------------------------




 Dimension of arrays:
   k-points           NKPTS =      4   k-points in BZ     NKDIM =      4   number of bands    NBANDS=    320
   number of dos      NEDOS =    301   number of ions     NIONS =     64
   non local maximal  LDIM  =      5   non local SUM 2l+1 LMDIM =     13
   total plane-waves  NPLWV = 882000
   max r-space proj   IRMAX =      1   max aug-charges    IRDMAX=  11926
   dimension x,y,z NGX =    70 NGY =   70 NGZ =  180
   dimension x,y,z NGXF=   140 NGYF=  140 NGZF=  360
   support grid    NGXF=   140 NGYF=  140 NGZF=  360
   ions per type =              32  32
   NGX,Y,Z   is equivalent  to a cutoff of  13.94, 13.94, 14.07 a.u.
   NGXF,Y,Z  is equivalent  to a cutoff of  27.88, 27.88, 28.15 a.u.

 SYSTEM =  MgO-rocksalt                            
 POSCAR =  Mg  O                                   

--------------------------------------------------------------------------------------------------------


  energy-cutoff  :      600.00
  volume of cell :     1482.11
      direct lattice vectors                 reciprocal lattice vectors
     8.349111827  0.000000000  0.000000000     0.119773219  0.000000000  0.000000000
     0.000000000  8.349111827  0.000000000     0.000000000  0.119773219  0.000000000
     0.000000000  0.000000000 21.261833870     0.000000000  0.000000000  0.047032632

  length of vectors
     8.349111827  8.349111827 21.261833870     0.119773219  0.119773219  0.047032632



 k-points in units of 2pi/SCALE and weight: pymatgen v2020.8.13 with grid density = 
   0.00000000  0.00000000  0.00000000       0.250
   0.05988661  0.00000000  0.00000000       0.250
   0.00000000  0.05988661  0.00000000       0.250
   0.05988661  0.05988661  0.00000000       0.250

 k-points in reciprocal lattice and weights: pymatgen v2020.8.13 with grid density = 
   0.00000000  0.00000000  0.00000000       0.250
   0.50000000  0.00000000  0.00000000       0.250
   0.00000000  0.50000000  0.00000000       0.250
   0.50000000  0.50000000  0.00000000       0.250

 position of ions in fractional coordinates (direct lattice) 
   0.25000000  0.00000000  0.35274474
   0.50000000  0.25000000  0.35274474
   0.25000000  0.25000000  0.45091491
   0.50000000  0.00000000  0.45091491
   0.25022788  0.00018792  0.54932230
   0.50019067  0.25092299  0.54998127
   0.25017003  0.24730730  0.64696926
   0.50045682  0.00035161  0.64675737
   0.25000000  0.50000000  0.35274474
   0.50000000  0.75000000  0.35274474
   0.25000000  0.75000000  0.45091491
   0.50000000  0.50000000  0.45091491
   0.25100876  0.49980378  0.54997006
   0.50024085  0.74890721  0.55002625
   0.24945420  0.75270819  0.64620218
   0.50655150  0.49897722  0.65247845
   0.75000000  0.00000000  0.35274474
   0.00000000  0.25000000  0.35274474
   0.75000000  0.25000000  0.45091491
   0.00000000  0.00000000  0.45091491
   0.74976218  0.00006798  0.54944707
   0.99980895  0.25012548  0.54962713
   0.74983715  0.24903003  0.64724050
   0.99948147  0.00008917  0.64710215
   0.75000000  0.50000000  0.35274474
   0.00000000  0.75000000  0.35274474
   0.75000000  0.75000000  0.45091491
   0.00000000  0.50000000  0.45091491
   0.74913958  0.49986731  0.54987114
   0.99966321  0.74981848  0.54952631
   0.75017171  0.75084441  0.64701870
   0.99760777  0.49981030  0.64711524
   0.25000000  0.00000000  0.45091491
   0.50000000  0.25000000  0.45091491
   0.25000000  0.25000000  0.35274474
   0.50000000  0.00000000  0.35274474
   0.24961979  0.99976290  0.64925966
   0.49993328  0.24802697  0.64810994
   0.24959169  0.25059252  0.54953966
   0.49980864  0.99968911  0.54902618
   0.25000000  0.50000000  0.45091491
   0.50000000  0.75000000  0.45091491
   0.25000000  0.75000000  0.35274474
   0.50000000  0.50000000  0.35274474
   0.24497824  0.50031753  0.65200836
   0.49974817  0.75164835  0.64905683
   0.24970357  0.74937613  0.54945249
   0.49947980  0.50012375  0.55032709
   0.75000000  0.00000000  0.45091491
   0.00000000  0.25000000  0.45091491
   0.75000000  0.25000000  0.35274474
   0.00000000  0.00000000  0.35274474
   0.75027716  0.99981317  0.64934488
   0.00000165  0.24931082  0.64946578
   0.75042472  0.25003046  0.54929239
   0.00017089  0.99990578  0.54924821
   0.75000000  0.50000000  0.45091491
   0.00000000  0.75000000  0.45091491
   0.75000000  0.75000000  0.35274474
   0.00000000  0.50000000  0.35274474
   0.75215983  0.50011346  0.64945968
   0.99999028  0.75061236  0.64945431
   0.75023209  0.74990157  0.54933248
   0.00053502  0.50003877  0.54949734

 position of ions in cartesian coordinates  (Angst):
   2.08727796  0.00000000  7.50000000
   4.17455591  2.08727796  7.50000000
   2.08727796  2.08727796  9.58727796
   4.17455591  0.00000000  9.58727796
   2.08918058  0.00156899 11.67959957
   4.17614784  2.09498413 11.69361037
   2.08869756  2.06479630 13.75575294
   4.17836996  0.00293561 13.75124776
   2.08727796  4.17455591  7.50000000
   4.17455591  6.26183387  7.50000000
   2.08727796  6.26183387  9.58727796
   4.17455591  4.17455591  9.58727796
   2.09570019  4.17291765 11.69337210
   4.17656678  6.25271002 11.69456668
   2.08272103  6.28444483 13.73944344
   4.22925513  4.16601661 13.87288842
   6.26183387  0.00000000  7.50000000
   0.00000000  2.08727796  7.50000000
   6.26183387  2.08727796  9.58727796
   0.00000000  0.00000000  9.58727796
   6.25984826  0.00056754 11.68225224
   8.34751674  2.08832557 11.68608072
   6.26047419  2.07917954 13.76151992
   8.34478255  0.00074452 13.75857837
   6.26183387  4.17455591  7.50000000
   0.00000000  6.26183387  7.50000000
   6.26183387  6.26183387  9.58727796
   0.00000000  4.17455591  9.58727796
   6.25465011  4.17344805 11.69126874
   8.34629991  6.26031832 11.68393704
   6.26326746  6.26888393 13.75680411
   8.32913885  4.17297209 13.75885662
   2.08727796  0.00000000  9.58727796
   4.17455591  2.08727796  9.58727796
   2.08727796  2.08727796  7.50000000
   4.17455591  0.00000000  7.50000000
   2.08410357  8.34713221 13.80445100
   4.17399885  2.07080493 13.78000596
   2.08386893  2.09222497 11.68422101
   4.17295824  8.34651616 11.67330349
   2.08727796  4.17455591  9.58727796
   4.17455591  6.26183387  9.58727796
   2.08727796  6.26183387  7.50000000
   4.17455591  4.17455591  7.50000000
   2.04535070  4.17720701 13.86289339
   4.17245339  6.27559610 13.80013840
   2.08480304  6.25662510 11.68236762
   4.17021271  4.17558909 11.70096318
   6.26183387  0.00000000  9.58727796
   0.00000000  2.08727796  9.58727796
   6.26183387  2.08727796  7.50000000
   0.00000000  0.00000000  7.50000000
   6.26414792  8.34755196 13.80626303
   0.00001374  2.08152393 13.80883353
   6.26537994  2.08753231 11.67896356
   0.00142679  8.34832518 11.67802414
   6.26183387  4.17455591  9.58727796
   0.00000000  6.26183387  9.58727796
   6.26183387  6.26183387  7.50000000
   0.00000000  4.17455591  7.50000000
   6.27986657  4.17550324 13.80870372
   8.34903065  6.26694656 13.80858972
   6.26377161  6.26101207 11.67981600
   0.00446698  4.17487960 11.68332111



--------------------------------------------------------------------------------------------------------

--------------------------------------- Iteration      FINAL  ---------------------------------------


--------------------OUTCAR has been truncated-------------------------


--------------------OUTCAR has been truncated-------------------------


--------------------OUTCAR has been truncated-------------------------


--------------------OUTCAR has been truncated-------------------------


--------------------OUTCAR has been truncated-------------------------


--------------------OUTCAR has been truncated-------------------------


--------------------OUTCAR has been truncated-------------------------


--------------------OUTCAR has been truncated-------------------------


--------------------OUTCAR has been truncated-------------------------


--------------------OUTCAR has been truncated-------------------------


  FORCE on cell =-STRESS in cart. coord.  units (eV):
  Direction    XX          YY          ZZ          XY          YZ          ZX
  --------------------------------------------------------------------------------------
  Alpha Z   897.52708   897.52708   897.52708
  Ewald  166019.06572166014.85031************     0.34728     0.16473    -1.71393
  Hartree175993.61019175991.39246************     0.22020     0.06662    -0.61017
  E(xc)   -2526.57974 -2526.58828 -2529.38920     0.00052    -0.00013    -0.00083
  Local  ************************352564.81410    -0.56866    -0.21486     2.16264
  n-local -2811.11009 -2811.18814 -2831.24726     0.00282    -0.00533    -0.00268
  augment  1076.90275  1076.90209  1067.76884     0.00196    -0.00307     0.02086
  Kinetic  7348.53885  7348.57986  7379.38483    -0.00128     0.04124     0.13806
  Fock        0.00000     0.00000     0.00000     0.00000     0.00000     0.00000
  -------------------------------------------------------------------------------------
  Total      11.89798    11.75364    28.53561     0.00283     0.04920    -0.00605
  in kB      12.86183    12.70579    30.84725     0.00306     0.05319    -0.00654
  external pressure =       18.80 kB  Pullay stress =        0.00 kB


 VOLUME and BASIS-vectors are now :
 -----------------------------------------------------------------------------
  energy-cutoff  :      600.00
  volume of cell :     1482.11
      direct lattice vectors                 reciprocal lattice vectors
     8.349111827  0.000000000  0.000000000     0.119773219  0.000000000  0.000000000
     0.000000000  8.349111827  0.000000000     0.000000000  0.119773219  0.000000000
     0.000000000  0.000000000 21.261833870     0.000000000  0.000000000  0.047032632

  length of vectors
     8.349111827  8.349111827 21.261833870     0.119773219  0.119773219  0.047032632


 FORCES acting on ions:
    Electron-Ion                     Ewald-Force                    Non-Local-Force
 -----------------------------------------------------------------------------------------------
   -.181E+00 -.463E-02 0.212E+04   0.182E+00 0.448E-02 -.212E+04   -.652E-03 0.648E-04 -.650E+01
   0.130E+00 -.421E+00 0.212E+04   -.132E+00 0.429E+00 -.212E+04   0.140E-02 -.611E-02 -.652E+01
   -.110E+01 -.175E+01 0.702E+03   0.109E+01 0.184E+01 -.702E+03   0.423E-02 -.659E-01 0.485E+00
   0.294E+00 -.259E-02 0.704E+03   -.284E+00 -.260E-01 -.704E+03   -.684E-02 0.208E-01 0.308E+00
   -.452E+00 0.605E-01 -.702E+03   0.419E+00 -.271E-01 0.702E+03   0.211E-02 -.420E-01 -.241E-01
   0.251E+01 -.539E+01 -.707E+03   -.259E+01 0.579E+01 0.708E+03   0.336E-01 -.373E+00 -.620E+00
   -.327E+01 -.132E+02 -.210E+04   0.275E+01 0.134E+02 0.210E+04   0.388E+00 0.160E+00 0.545E+01
   0.159E+01 0.198E+01 -.210E+04   -.149E+01 -.215E+01 0.210E+04   -.126E+00 0.669E-01 0.549E+01
   -.265E+00 0.506E-02 0.212E+04   0.270E+00 -.489E-02 -.212E+04   -.393E-02 -.161E-03 -.654E+01
   0.123E+00 0.420E+00 0.212E+04   -.124E+00 -.429E+00 -.212E+04   0.109E-02 0.649E-02 -.653E+01
   -.121E+01 0.173E+01 0.702E+03   0.123E+01 -.182E+01 -.702E+03   -.182E-01 0.657E-01 0.458E+00
   0.636E+00 -.199E-01 0.698E+03   -.684E+00 0.392E-01 -.698E+03   0.358E-01 -.147E-01 0.654E+00
   -.532E+01 -.795E-01 -.725E+03   0.552E+01 0.473E-01 0.725E+03   -.225E+00 0.404E-01 0.121E-01
   0.238E+01 0.548E+01 -.712E+03   -.242E+01 -.587E+01 0.712E+03   0.423E-04 0.368E+00 -.461E+00
   -.575E+01 0.132E+02 -.209E+04   0.538E+01 -.134E+02 0.209E+04   0.346E+00 -.131E+00 0.525E+01
   0.254E+02 -.262E+01 -.215E+04   -.252E+02 0.279E+01 0.214E+04   -.952E+00 -.432E-01 0.634E+01
   0.181E+00 0.209E-02 0.212E+04   -.182E+00 -.281E-02 -.212E+04   0.673E-03 0.516E-03 -.651E+01
   -.130E+00 -.338E+00 0.212E+04   0.132E+00 0.342E+00 -.212E+04   -.139E-02 -.303E-02 -.652E+01
   0.109E+01 -.147E+01 0.703E+03   -.108E+01 0.150E+01 -.704E+03   -.433E-02 -.148E-01 0.447E+00
   -.299E+00 -.101E+00 0.704E+03   0.289E+00 0.108E+00 -.705E+03   0.726E-02 -.550E-02 0.379E+00
   0.403E+00 0.231E+00 -.704E+03   -.369E+00 -.232E+00 0.704E+03   -.355E-02 -.864E-02 -.276E-01
   -.204E+01 -.211E+01 -.707E+03   0.210E+01 0.220E+01 0.707E+03   -.236E-01 -.724E-01 -.244E+00
   0.642E+00 -.182E+01 -.211E+04   -.588E-01 0.111E+01 0.210E+04   -.412E+00 0.615E+00 0.571E+01
   -.129E+01 0.524E-01 -.211E+04   0.119E+01 -.722E-01 0.210E+04   0.120E+00 0.251E-02 0.544E+01
   0.264E+00 -.219E-02 0.212E+04   -.269E+00 0.279E-02 -.212E+04   0.377E-02 -.445E-03 -.651E+01
   -.123E+00 0.338E+00 0.212E+04   0.125E+00 -.342E+00 -.212E+04   -.908E-03 0.313E-02 -.652E+01
   0.120E+01 0.147E+01 0.703E+03   -.123E+01 -.149E+01 -.704E+03   0.213E-01 0.163E-01 0.458E+00
   -.613E+00 0.988E-01 0.702E+03   0.666E+00 -.109E+00 -.702E+03   -.383E-01 0.706E-02 0.408E+00
   0.341E+01 -.251E+00 -.709E+03   -.362E+01 0.252E+00 0.708E+03   0.222E+00 0.892E-02 -.394E-03
   -.185E+01 0.212E+01 -.706E+03   0.188E+01 -.220E+01 0.706E+03   0.108E-01 0.719E-01 -.227E+00
   0.269E+01 0.186E+01 -.210E+04   -.225E+01 -.119E+01 0.210E+04   -.346E+00 -.590E+00 0.559E+01
   -.697E+01 -.625E-01 -.210E+04   0.802E+01 0.841E-01 0.210E+04   -.664E+00 -.176E-02 0.509E+01
   -.381E+00 0.873E-02 0.528E+03   0.386E+00 -.197E-01 -.528E+03   -.857E-02 0.141E-01 0.297E-01
   0.533E+00 -.146E+01 0.525E+03   -.540E+00 0.141E+01 -.525E+03   0.861E-02 0.657E-01 -.109E+00
   -.168E+00 -.297E+00 0.159E+04   0.168E+00 0.308E+00 -.160E+04   -.647E-03 -.147E-01 0.352E+01
   0.753E-01 0.326E-02 0.159E+04   -.744E-01 -.561E-02 -.160E+04   -.122E-02 0.330E-02 0.353E+01
   -.113E+01 -.337E-01 -.160E+04   0.106E+01 -.433E-01 0.161E+04   0.136E+00 0.128E+00 -.527E+01
   0.440E+01 -.715E+01 -.159E+04   -.482E+01 0.720E+01 0.159E+04   0.536E+00 0.169E+00 -.407E+01
   -.168E+01 -.413E+01 -.526E+03   0.166E+01 0.421E+01 0.526E+03   0.721E-01 -.164E+00 0.344E+00
   0.366E+00 0.374E+00 -.520E+03   -.381E+00 -.399E+00 0.519E+03   0.358E-01 0.497E-01 0.480E+00
   -.896E+00 -.282E-02 0.524E+03   0.841E+00 0.132E-01 -.524E+03   0.743E-01 -.135E-01 -.167E+00
   0.489E+00 0.145E+01 0.525E+03   -.502E+00 -.139E+01 -.525E+03   0.146E-01 -.806E-01 -.151E+00
   -.178E+00 0.297E+00 0.159E+04   0.182E+00 -.307E+00 -.160E+04   -.556E-02 0.147E-01 0.352E+01
   0.104E+00 -.272E-02 0.159E+04   -.111E+00 0.545E-02 -.160E+04   0.862E-02 -.387E-02 0.352E+01
   -.162E+02 -.824E-02 -.161E+04   0.165E+02 0.132E+00 0.162E+04   0.206E+00 -.189E+00 -.540E+01
   0.445E+01 0.776E+01 -.160E+04   -.493E+01 -.791E+01 0.160E+04   0.607E+00 -.531E-01 -.457E+01
   -.227E+01 0.411E+01 -.524E+03   0.225E+01 -.420E+01 0.523E+03   0.415E-01 0.159E+00 0.530E+00
   0.408E+01 -.413E+00 -.547E+03   -.428E+01 0.428E+00 0.548E+03   0.296E+00 -.382E-01 -.836E+00
   0.382E+00 0.419E-01 0.528E+03   -.386E+00 -.441E-01 -.528E+03   0.768E-02 0.228E-02 -.848E-02
   -.525E+00 -.975E+00 0.527E+03   0.532E+00 0.984E+00 -.527E+03   -.829E-02 -.110E-01 -.871E-01
   0.167E+00 -.269E+00 0.159E+04   -.168E+00 0.272E+00 -.160E+04   0.653E-03 -.476E-02 0.353E+01
   -.753E-01 -.804E-02 0.160E+04   0.744E-01 0.893E-02 -.160E+04   0.119E-02 -.124E-02 0.353E+01
   0.886E+00 0.177E+00 -.160E+04   -.803E+00 -.253E+00 0.161E+04   -.154E+00 0.115E+00 -.516E+01
   -.225E+01 -.215E+01 -.160E+04   0.263E+01 0.253E+01 0.161E+04   -.504E+00 -.434E+00 -.529E+01
   0.135E+01 -.170E+01 -.523E+03   -.132E+01 0.166E+01 0.523E+03   -.690E-01 0.426E-01 0.409E+00
   -.348E+00 -.154E+00 -.523E+03   0.368E+00 0.147E+00 0.523E+03   -.414E-01 0.152E-01 0.207E+00
   0.892E+00 -.474E-01 0.525E+03   -.842E+00 0.522E-01 -.525E+03   -.671E-01 -.584E-02 -.634E-01
   -.493E+00 0.968E+00 0.527E+03   0.511E+00 -.973E+00 -.527E+03   -.222E-01 0.701E-02 -.602E-01
   0.179E+00 0.269E+00 0.159E+04   -.182E+00 -.272E+00 -.160E+04   0.527E-02 0.468E-02 0.353E+01
   -.104E+00 0.833E-02 0.159E+04   0.110E+00 -.912E-02 -.160E+04   -.845E-02 0.110E-02 0.352E+01
   0.109E+01 -.258E+00 -.160E+04   -.388E+00 0.356E+00 0.160E+04   -.948E+00 -.146E+00 -.430E+01
   -.188E+01 0.219E+01 -.160E+04   0.223E+01 -.258E+01 0.161E+04   -.495E+00 0.448E+00 -.543E+01
   0.190E+01 0.169E+01 -.523E+03   -.190E+01 -.166E+01 0.523E+03   -.345E-01 -.463E-01 0.437E+00
   -.262E+01 0.161E+00 -.525E+03   0.282E+01 -.155E+00 0.524E+03   -.307E+00 -.129E-01 0.293E+00
 -----------------------------------------------------------------------------------------------
   0.225E+01 -.103E+00 0.158E+02   0.128E-12 -.260E-12 -.227E-12   -.225E+01 0.101E+00 -.158E+02


 POSITION                                       TOTAL-FORCE (eV/Angst)
 -----------------------------------------------------------------------------------
      2.08728      0.00000      7.50000         0.000353     -0.000062     -0.020306
      4.17456      2.08728      7.50000        -0.000464      0.002195     -0.015887
      2.08728      2.08728      9.58728         0.000495      0.024639      0.052458
      4.17456      0.00000      9.58728         0.002898     -0.007602      0.033960
      2.08918      0.00157     11.67960        -0.031299     -0.008610      0.024049
      4.17615      2.09498     11.69361        -0.040665      0.025604     -0.091365
      2.08870      2.06480     13.75575        -0.137709      0.354173      0.463516
      4.17837      0.00294     13.75125        -0.026252     -0.096215      0.409510
      2.08728      4.17456      7.50000         0.001350      0.000028     -0.010137
      4.17456      6.26183      7.50000        -0.000397     -0.002288     -0.012572
      2.08728      6.26183      9.58728         0.008303     -0.024282      0.055124
      4.17456      4.17456      9.58728        -0.012447      0.004567      0.085681
      2.09570      4.17292     11.69337        -0.023628      0.008162      0.250008
      4.17657      6.25271     11.69457        -0.039351     -0.022919     -0.021136
      2.08272      6.28444     13.73944        -0.032238     -0.368144      0.630277
      4.22926      4.16602     13.87289        -0.745681      0.129126     -0.341414
      6.26183      0.00000      7.50000        -0.000299     -0.000176     -0.017620
      0.00000      2.08728      7.50000         0.000556      0.001248     -0.014486
      6.26183      2.08728      9.58728        -0.000623      0.006568      0.026511
      0.00000      0.00000      9.58728        -0.002866      0.002196      0.031572
      6.25985      0.00057     11.68225         0.029667     -0.009859      0.015320
      8.34752      2.08833     11.68608         0.039322      0.012114      0.048149
      6.26047      2.07918     13.76152         0.168102     -0.092935      0.304746
      8.34478      0.00074     13.75858         0.022463     -0.017147      0.404536
      6.26183      4.17456      7.50000        -0.001219      0.000177     -0.017660
      0.00000      6.26183      7.50000         0.000405     -0.001249     -0.016007
      6.26183      6.26183      9.58728        -0.010224     -0.007121      0.029737
      0.00000      4.17456      9.58728         0.014381     -0.003010      0.073397
      6.25465      4.17345     11.69127         0.020060      0.009293     -0.064566
      8.34630      6.26032     11.68394         0.038554     -0.011786      0.060460
      6.26327      6.26888     13.75680         0.084772      0.085208      0.375559
      8.32914      4.17297     13.75886         0.377355      0.019650      0.513060
      2.08728      0.00000      9.58728        -0.003716      0.003233      0.063563
      4.17456      2.08728      9.58728         0.000949      0.017507      0.099994
      2.08728      2.08728      7.50000        -0.000154     -0.004269     -0.720367
      4.17456      0.00000      7.50000        -0.000313      0.000976     -0.719153
      2.08410      8.34713     13.80445         0.069072      0.051162      0.172418
      4.17400      2.07080     13.78001         0.115741      0.211967      0.558947
      2.08387      2.09222     11.68422         0.045346     -0.076597     -0.056302
      4.17296      8.34652     11.67330         0.020674      0.024971      0.051163
      2.08728      4.17456      9.58728         0.018507     -0.003146      0.080246
      4.17456      6.26183      9.58728         0.002591     -0.021449      0.091317
      2.08728      6.26183      7.50000        -0.001589      0.004299     -0.720587
      4.17456      4.17456      7.50000         0.002519     -0.001117     -0.722899
      2.04535      4.17721     13.86289         0.572762     -0.065565     -0.014329
      4.17245      6.27560     13.80014         0.131255     -0.198152      0.376511
      2.08480      6.25663     11.68237         0.029567      0.075455     -0.081334
      4.17021      4.17559     11.70096         0.100683     -0.022567      0.030221
      6.26183      0.00000      9.58728         0.003459      0.000152      0.065273
      0.00000      2.08728      9.58728        -0.000656     -0.002571      0.063325
      6.26183      2.08728      7.50000         0.000220     -0.001370     -0.719237
      0.00000      0.00000      7.50000         0.000365     -0.000340     -0.718536
      6.26415      8.34755     13.80626        -0.070748      0.038929      0.194473
      0.00001      2.08152     13.80883        -0.128056     -0.056256      0.162715
      6.26538      2.08753     11.67896        -0.046766      0.009274      0.037173
      0.00143      8.34833     11.67802        -0.020621      0.007673     -0.016772
      6.26183      4.17456      9.58728        -0.017082     -0.001030      0.101154
      0.00000      6.26183      9.58728        -0.004280      0.001605      0.059849
      6.26183      6.26183      7.50000         0.001558      0.001384     -0.719648
      0.00000      4.17456      7.50000        -0.002441      0.000336     -0.720883
      6.27987      4.17550     13.80870        -0.248154     -0.047574      0.383554
      8.34903      6.26695     13.80859        -0.138603      0.058542      0.129329
      6.26377      6.26101     11.67982        -0.030027     -0.009817      0.013003
      0.00447      4.17488     11.68332        -0.105738     -0.007187     -0.048651
 -----------------------------------------------------------------------------------
    total drift:                               -0.002108     -0.001337     -0.018456


--------------------------------------------------------------------------------------------------------



  FREE ENERGIE OF THE ION-ELECTRON SYSTEM (eV)
  ---------------------------------------------------
  free  energy   TOTEN  =      -226.96623814 eV

  energy  without entropy=     -226.96623814  energy(sigma->0) =     -226.96623814



--------------------------------------------------------------------------------------------------------


    POTLOK:  cpu time      2.2859: real time      2.2865


--------------------------------------------------------------------------------------------------------


     LOOP+:  cpu time    165.5368: real time    165.7795
    4ORBIT:  cpu time      0.0000: real time      0.0000

 total amount of memory used by VASP MPI-rank0    59967. kBytes
=======================================================================

   base      :      30000. kBytes
   nonl-proj :      11522. kBytes
   fftplans  :       4921. kBytes
   grid      :       7379. kBytes
   one-center:         64. kBytes
   wavefun   :       6081. kBytes

  
  
 General timing and accounting informations for this job:
 ========================================================
  
                  Total CPU time used (sec):      198.213
                            User time (sec):      196.445
                          System time (sec):        1.768
                         Elapsed time (sec):      208.056
  
                   Maximum memory used (kb):      263924.
                   Average memory used (kb):          N/A
  
                          Minor page faults:        69556
                          Major page faults:            0
                 Voluntary context switches:        12589
