 vasp.6.3.0 20Jan22 (build Mar 11 2022 13:48:16) complex                        
  
 executed on             LinuxIFC date 2023.12.26  17:58:29
 running on  304 total cores
 distrk:  each k-point on  304 cores,    1 groups
 distr:  one band on NCORE=   2 cores,  152 groups


--------------------------------------------------------------------------------------------------------


 INCAR:
   SYSTEM = MgO-rocksalt
   ISMEAR = 0
   SIGMA = 0.05
   EDIFF = 1E-6
   ALGO = ALL
   ISTART = 0
   IBRION = -1
   NSW = 0
   ISYM = 0
   DIPOL = 0.5 0.5 0.5
   IDIPOL = 3
   LDIPOL = .TRUE.
   LHFCALC = .TRUE.
   GGA = PE
   IVDW = 13
   VDW_S8 = 1.2007
   VDW_A1 = 0.4009
   VDW_A2 = 5.0293
   ENCUT = 520
   PREC = Accurate
   LASPH = .TRUE.
   LREAL = Auto
   ISPIN = 1
   NELM = 200
   NELMIN = 8
   NCORE = 2
   KPAR = 1
   LWAVE = .FALSE.
   LCHARG = .FALSE.

 POTCAR:    PAW_PBE C 08Apr2002                   
 POTCAR:    PAW_PBE H 15Jun2001                   
 POTCAR:    PAW_PBE Mg_pv 13Apr2007               
 POTCAR:    PAW_PBE O 08Apr2002                   
 -----------------------------------------------------------------------------
|                                                                             |
|           W    W    AA    RRRRR   N    N  II  N    N   GGGG   !!!           |
|           W    W   A  A   R    R  NN   N  II  NN   N  G    G  !!!           |
|           W    W  A    A  R    R  N N  N  II  N N  N  G       !!!           |
|           W WW W  AAAAAA  RRRRR   N  N N  II  N  N N  G  GGG   !            |
|           WW  WW  A    A  R   R   N   NN  II  N   NN  G    G                |
|           W    W  A    A  R    R  N    N  II  N    N   GGGG   !!!           |
|                                                                             |
|     For optimal performance we recommend to set                             |
|       NCORE = 2 up to number-of-cores-per-socket                            |
|     NCORE specifies how many cores store one orbital (NPAR=cpu/NCORE).      |
|     This setting can greatly improve the performance of VASP for DFT.       |
|     The default, NCORE=1 might be grossly inefficient on modern             |
|     multi-core architectures or massively parallel machines. Do your        |
|     own testing! More info at https://www.vasp.at/wiki/index.php/NCORE      |
|     Unfortunately you need to use the default for GW and RPA                |
|     calculations (for HF NCORE is supported but not extensively tested      |
|     yet).                                                                   |
|                                                                             |
 -----------------------------------------------------------------------------

 POTCAR:    PAW_PBE C 08Apr2002                   
   SHA256 =  253f7b50bb8d59471dbedb8285d89021f4a42ed1a2c5d38a03a736e69125dd95 C/POTCAR              
   COPYR  = (c) Copyright 08Apr2002 Georg Kresse                                                    
   COPYR  = This file is part of the software VASP. Any use, copying, and all other rights are regul
   COPYR  = If you do not have a valid VASP license, you may not use, copy or distribute this file. 
   VRHFIN =C: s2p2                                                                                  
   LEXCH  = PE                                                                                      
   EATOM  =   147.1560 eV,   10.8157 Ry                                                             
                                                                                                    
   TITEL  = PAW_PBE C 08Apr2002                                                                     
   LULTRA =        F    use ultrasoft PP ?                                                          
   IUNSCR =        1    unscreen: 0-lin 1-nonlin 2-no                                               
   RPACOR =    1.200    partial core radius                                                         
   POMASS =   12.011; ZVAL   =    4.000    mass and valenz                                          
   RCORE  =    1.500    outmost cutoff radius                                                       
   RWIGS  =    1.630; RWIGS  =    0.863    wigner-seitz radius (au A)                               
   ENMAX  =  400.000; ENMIN  =  300.000 eV                                                          
   ICORE  =        2    local potential                                                             
   LCOR   =        T    correct aug charges                                                         
   LPAW   =        T    paw PP                                                                      
   EAUG   =  644.873                                                                                
   DEXC   =    0.000                                                                                
   RMAX   =    1.529    core radius for proj-oper                                                   
   RAUG   =    1.300    factor for augmentation sphere                                              
   RDEP   =    1.501    radius for radial grids                                                     
   RDEPT  =    1.300    core radius for aug-charge                                                  
                                                                                                    
   Atomic configuration                                                                             
    4 entries                                                                                       
     n  l   j            E        occ.                                                              
     1  0  0.50      -273.3789   2.0000                                                             
     2  0  0.50       -13.7508   2.0000                                                             
     2  1  0.50        -5.2854   2.0000                                                             
     3  2  1.50        -5.4423   0.0000                                                             
   Description                                                                                      
     l       E           TYP  RCUT    TYP  RCUT                                                     
     0    -13.7508458     23  1.200                                                                 
     0     -8.2022199     23  1.200                                                                 
     1     -5.2854383     23  1.500                                                                 
     1     34.0145650     23  1.500                                                                 
     2     -5.4423304      7  1.500                                                                 
  local pseudopotential read in
  partial core-charges read in
  partial kinetic energy density read in
  atomic valenz-charges read in
  non local Contribution for L=           0  read in
    real space projection operators read in
  non local Contribution for L=           0  read in
    real space projection operators read in
  non local Contribution for L=           1  read in
    real space projection operators read in
  non local Contribution for L=           1  read in
    real space projection operators read in
    PAW grid and wavefunctions read in
 
   number of l-projection  operators is LMAX  =           4
   number of lm-projection operators is LMMAX =           8
 
 POTCAR:    PAW_PBE H 15Jun2001                   
   SHA256 =  030f79b5d3ab3cf0e668861823c8fb652ff669f3e15e46930bd03bfd63a607b6 H/POTCAR              
   COPYR  = (c) Copyright 15Jun2001 Georg Kresse                                                    
   COPYR  = This file is part of the software VASP. Any use, copying, and all other rights are regul
   COPYR  = If you do not have a valid VASP license, you may not use, copy or distribute this file. 
   VRHFIN =H: ultrasoft test                                                                        
   LEXCH  = PE                                                                                      
   EATOM  =    12.4884 eV,    0.9179 Ry                                                             
                                                                                                    
   TITEL  = PAW_PBE H 15Jun2001                                                                     
   LULTRA =        F    use ultrasoft PP ?                                                          
   IUNSCR =        0    unscreen: 0-lin 1-nonlin 2-no                                               
   RPACOR =    0.000    partial core radius                                                         
   POMASS =    1.000; ZVAL   =    1.000    mass and valenz                                          
   RCORE  =    1.100    outmost cutoff radius                                                       
   RWIGS  =    0.700; RWIGS  =    0.370    wigner-seitz radius (au A)                               
   ENMAX  =  250.000; ENMIN  =  200.000 eV                                                          
   RCLOC  =    0.701    cutoff for local pot                                                        
   LCOR   =        T    correct aug charges                                                         
   LPAW   =        T    paw PP                                                                      
   EAUG   =  400.000                                                                                
   RMAX   =    1.123    core radius for proj-oper                                                   
   RAUG   =    1.200    factor for augmentation sphere                                              
   RDEP   =    1.112    radius for radial grids                                                     
   RDEPT  =    0.926    core radius for aug-charge                                                  
                                                                                                    
   Atomic configuration                                                                             
    2 entries                                                                                       
     n  l   j            E        occ.                                                              
     1  0  0.50        -6.4927   1.0000                                                             
     2  1  0.50        -3.4015   0.0000                                                             
   Description                                                                                      
     l       E           TYP  RCUT    TYP  RCUT                                                     
     0     -6.4927494     23  1.100                                                                 
     0      6.8029130     23  1.100                                                                 
     1     -4.0817478     23  1.100                                                                 
  local pseudopotential read in
  atomic valenz-charges read in
  non local Contribution for L=           0  read in
    real space projection operators read in
  non local Contribution for L=           0  read in
    real space projection operators read in
  non local Contribution for L=           1  read in
    real space projection operators read in
    PAW grid and wavefunctions read in
 
   number of l-projection  operators is LMAX  =           3
   number of lm-projection operators is LMMAX =           5
 
 POTCAR:    PAW_PBE Mg_pv 13Apr2007               
   SHA256 =  f474ac0dd33840b9ae76c01d57fea79fdf77cdfbb07d5ade72c65f83c709b62b Mg_pv/POTCAR          
   COPYR  = (c) Copyright 13Apr2007 Georg Kresse                                                    
   COPYR  = This file is part of the software VASP. Any use, copying, and all other rights are regul
   COPYR  = If you do not have a valid VASP license, you may not use, copy or distribute this file. 
   VRHFIN =Mg: p6s2                                                                                 
   LEXCH  = PE                                                                                      
   EATOM  =  1056.7344 eV,   77.6678 Ry                                                             
                                                                                                    
   TITEL  = PAW_PBE Mg_pv 13Apr2007                                                                 
   LULTRA =        F    use ultrasoft PP ?                                                          
   IUNSCR =        1    unscreen: 0-lin 1-nonlin 2-no                                               
   RPACOR =    1.500    partial core radius                                                         
   POMASS =   24.305; ZVAL   =    8.000    mass and valenz                                          
   RCORE  =    2.000    outmost cutoff radius                                                       
   RWIGS  =    2.000; RWIGS  =    1.058    wigner-seitz radius (au A)                               
   ENMAX  =  403.929; ENMIN  =  302.947 eV                                                          
   RCLOC  =    1.506    cutoff for local pot                                                        
   LCOR   =        T    correct aug charges                                                         
   LPAW   =        T    paw PP                                                                      
   EAUG   =  758.780                                                                                
   DEXC   =    0.000                                                                                
   RMAX   =    2.045    core radius for proj-oper                                                   
   RAUG   =    1.300    factor for augmentation sphere                                              
   RDEP   =    2.025    radius for radial grids                                                     
   RDEPT  =    1.557    core radius for aug-charge                                                  
                                                                                                    
   Atomic configuration                                                                             
    5 entries                                                                                       
     n  l   j            E        occ.                                                              
     1  0  0.50     -1259.6230   2.0000                                                             
     2  0  0.50       -79.8442   2.0000                                                             
     2  1  1.50       -46.6121   6.0000                                                             
     3  0  0.50        -4.7055   2.0000                                                             
     3  2  1.50        -1.3606   0.0000                                                             
   Description                                                                                      
     l       E           TYP  RCUT    TYP  RCUT                                                     
     1    -46.6121073     23  1.600                                                                 
     1      2.7211652     23  1.600                                                                 
     0     -4.7054661     23  2.000                                                                 
     0     61.2262170     23  2.000                                                                 
     2     -1.3605826     23  2.000                                                                 
  local pseudopotential read in
  partial core-charges read in
  partial kinetic energy density read in
  atomic valenz-charges read in
  non local Contribution for L=           1  read in
    real space projection operators read in
  non local Contribution for L=           1  read in
    real space projection operators read in
  non local Contribution for L=           0  read in
    real space projection operators read in
  non local Contribution for L=           0  read in
    real space projection operators read in
  non local Contribution for L=           2  read in
    real space projection operators read in
    PAW grid and wavefunctions read in
 
   number of l-projection  operators is LMAX  =           5
   number of lm-projection operators is LMMAX =          13
 
 POTCAR:    PAW_PBE O 08Apr2002                   
   SHA256 =  818f92134a0a090dccd8ba1447fa70422a3b330e708bb4f08108d8ae51209ddf O/POTCAR              
   COPYR  = (c) Copyright 08Apr2002 Georg Kresse                                                    
   COPYR  = This file is part of the software VASP. Any use, copying, and all other rights are regul
   COPYR  = If you do not have a valid VASP license, you may not use, copy or distribute this file. 
   VRHFIN =O: s2p4                                                                                  
   LEXCH  = PE                                                                                      
   EATOM  =   432.3788 eV,   31.7789 Ry                                                             
                                                                                                    
   TITEL  = PAW_PBE O 08Apr2002                                                                     
   LULTRA =        F    use ultrasoft PP ?                                                          
   IUNSCR =        1    unscreen: 0-lin 1-nonlin 2-no                                               
   RPACOR =    1.200    partial core radius                                                         
   POMASS =   16.000; ZVAL   =    6.000    mass and valenz                                          
   RCORE  =    1.520    outmost cutoff radius                                                       
   RWIGS  =    1.550; RWIGS  =    0.820    wigner-seitz radius (au A)                               
   ENMAX  =  400.000; ENMIN  =  300.000 eV                                                          
   ICORE  =        2    local potential                                                             
   LCOR   =        T    correct aug charges                                                         
   LPAW   =        T    paw PP                                                                      
   EAUG   =  605.392                                                                                
   DEXC   =    0.000                                                                                
   RMAX   =    1.553    core radius for proj-oper                                                   
   RAUG   =    1.300    factor for augmentation sphere                                              
   RDEP   =    1.550    radius for radial grids                                                     
   RDEPT  =    1.329    core radius for aug-charge                                                  
                                                                                                    
   Atomic configuration                                                                             
    4 entries                                                                                       
     n  l   j            E        occ.                                                              
     1  0  0.50      -514.6923   2.0000                                                             
     2  0  0.50       -23.9615   2.0000                                                             
     2  1  0.50        -9.0305   4.0000                                                             
     3  2  1.50        -9.5241   0.0000                                                             
   Description                                                                                      
     l       E           TYP  RCUT    TYP  RCUT                                                     
     0    -23.9615318     23  1.200                                                                 
     0     -9.5240782     23  1.200                                                                 
     1     -9.0304911     23  1.520                                                                 
     1      8.1634956     23  1.520                                                                 
     2     -9.5240782      7  1.500                                                                 
  local pseudopotential read in
  partial core-charges read in
  partial kinetic energy density read in
  kinetic energy density of atom read in
  atomic valenz-charges read in
  non local Contribution for L=           0  read in
    real space projection operators read in
  non local Contribution for L=           0  read in
    real space projection operators read in
  non local Contribution for L=           1  read in
    real space projection operators read in
  non local Contribution for L=           1  read in
    real space projection operators read in
    PAW grid and wavefunctions read in
 
   number of l-projection  operators is LMAX  =           4
   number of lm-projection operators is LMMAX =           8
 
 Optimization of the real space projectors (new method)

 maximal supplied QI-value         = 25.13
 optimisation between [QCUT,QGAM] = [ 11.56, 23.12] = [ 37.43,149.72] Ry 
 Optimized for a Real-space Cutoff    1.04 Angstroem

   l    n(q)    QCUT    max X(q) W(low)/X(q) W(high)/X(q)  e(spline) 
   0      7    11.561   115.676    0.20E-03    0.60E-03    0.21E-06
   0      7    11.561    87.132    0.20E-03    0.59E-03    0.21E-06
   1      7    11.561     4.429    0.23E-03    0.35E-03    0.15E-06
   1      7    11.561     2.733    0.18E-03    0.25E-03    0.12E-06
 Optimization of the real space projectors (new method)

 maximal supplied QI-value         = 34.20
 optimisation between [QCUT,QGAM] = [ 11.63, 23.26] = [ 37.87,151.49] Ry 
 Optimized for a Real-space Cutoff    1.21 Angstroem

   l    n(q)    QCUT    max X(q) W(low)/X(q) W(high)/X(q)  e(spline) 
   0      8    11.629    19.460    0.17E-03    0.34E-03    0.21E-06
   0      8    11.629    12.209    0.16E-03    0.33E-03    0.21E-06
   1      8    11.629     4.655    0.18E-03    0.16E-03    0.26E-06
 Optimization of the real space projectors (new method)

 maximal supplied QI-value         = 18.90
 optimisation between [QCUT,QGAM] = [ 11.53, 23.24] = [ 37.21,151.29] Ry 
 Optimized for a Real-space Cutoff    1.28 Angstroem

   l    n(q)    QCUT    max X(q) W(low)/X(q) W(high)/X(q)  e(spline) 
   1      8    11.527     2.974    0.44E-04    0.56E-04    0.12E-06
   1      8    11.527     4.279    0.12E-03    0.12E-03    0.26E-06
   0      9    11.527    16.381    0.46E-04    0.64E-04    0.78E-07
   0      9    11.527     5.611    0.26E-04    0.43E-04    0.55E-07
   2      8    11.527     4.652    0.22E-03    0.72E-04    0.47E-07
 Optimization of the real space projectors (new method)

 maximal supplied QI-value         = 24.76
 optimisation between [QCUT,QGAM] = [ 11.64, 23.27] = [ 37.91,151.63] Ry 
 Optimized for a Real-space Cutoff    1.14 Angstroem

   l    n(q)    QCUT    max X(q) W(low)/X(q) W(high)/X(q)  e(spline) 
   0      8    11.635    20.381    0.10E-03    0.33E-03    0.24E-06
   0      8    11.635    15.268    0.11E-03    0.35E-03    0.26E-06
   1      7    11.635     5.964    0.24E-03    0.31E-03    0.30E-06
   1      7    11.635     5.382    0.22E-03    0.25E-03    0.26E-06
  PAW_PBE C 08Apr2002                   :
 energy of atom  1       EATOM= -147.1560
 kinetic energy error for atom=    0.0071 (will be added to EATOM!!)
  PAW_PBE H 15Jun2001                   :
 energy of atom  2       EATOM=  -12.4884
 kinetic energy error for atom=    0.0014 (will be added to EATOM!!)
  PAW_PBE Mg_pv 13Apr2007               :
 energy of atom  3       EATOM=-1056.7344
 kinetic energy error for atom=    0.0340 (will be added to EATOM!!)
  PAW_PBE O 08Apr2002                   :
 energy of atom  4       EATOM= -432.3788
 kinetic energy error for atom=    0.0208 (will be added to EATOM!!)
 
 
 POSCAR:  C  H Mg  O
  positions in direct lattice
  No initial velocities read in
 -----------------------------------------------------------------------------
|                                                                             |
|           W    W    AA    RRRRR   N    N  II  N    N   GGGG   !!!           |
|           W    W   A  A   R    R  NN   N  II  NN   N  G    G  !!!           |
|           W    W  A    A  R    R  N N  N  II  N N  N  G       !!!           |
|           W WW W  AAAAAA  RRRRR   N  N N  II  N  N N  G  GGG   !            |
|           WW  WW  A    A  R   R   N   NN  II  N   NN  G    G                |
|           W    W  A    A  R    R  N    N  II  N    N   GGGG   !!!           |
|                                                                             |
|     Specifying the vdW parameters                                           |
|     VDW_S8 = 1.201                                                          |
|     VDW_A1 = 0.401                                                          |
|     VDW_A2 = 5.029                                                          |
|     in the INCAR file will overwrite the defaults for pbe0. Please make     |
|     sure that is what you intended.                                         |
|                                                                             |
 -----------------------------------------------------------------------------

 exchange correlation table for  LEXCH =        8
   RHO(1)=    0.500       N(1)  =     2000
   RHO(2)=  100.500       N(2)  =     4000
 


--------------------------------------------------------------------------------------------------------


 ion  position               nearest neighbor table
   1  0.478  0.469  0.794-   7 1.09   2 1.40   6 1.40
   2  0.560  0.459  0.793-   8 1.09   1 1.40   3 1.40
   3  0.593  0.383  0.795-   9 1.09   4 1.40   2 1.40
   4  0.543  0.317  0.799-  10 1.09   3 1.40   5 1.40
   5  0.461  0.327  0.800-  11 1.09   6 1.40   4 1.40
   6  0.429  0.403  0.798-  12 1.09   5 1.40   1 1.40
   7  0.453  0.528  0.793-   1 1.09
   8  0.599  0.510  0.789-   2 1.09
   9  0.657  0.375  0.793-   3 1.09
  10  0.569  0.258  0.800-   4 1.09
  11  0.423  0.276  0.803-   5 1.09
  12  0.365  0.411  0.799-   6 1.09
  13  0.125  0.000  0.351- 141 2.12 143 2.12 144 2.12 160 2.12 183 2.12
  14  0.250  0.125  0.351- 142 2.12 143 2.12 144 2.12 152 2.12 159 2.12
  15  0.125  0.125  0.450- 147 2.11 143 2.12 141 2.12 142 2.12 149 2.12 158 2.12
  16  0.250  0.000  0.450- 148 2.11 144 2.12 141 2.12 142 2.12 157 2.12 182 2.12
  17  0.125  0.000  0.550- 147 2.12 164 2.12 187 2.12 148 2.12 141 2.12 145 2.14
  18  0.250  0.125  0.550- 163 2.12 156 2.12 148 2.12 147 2.12 142 2.12 146 2.14
  19  0.125  0.125  0.648- 147 2.10 146 2.12 153 2.12 145 2.12 162 2.12
  20  0.250  0.000  0.648- 148 2.10 146 2.12 161 2.12 186 2.12 145 2.12
  21  0.125  0.250  0.351- 149 2.12 143 2.12 151 2.12 152 2.12 168 2.12
  22  0.250  0.375  0.351- 150 2.12 151 2.12 152 2.12 167 2.12 176 2.12
  23  0.125  0.375  0.450- 155 2.11 151 2.12 149 2.12 150 2.12 166 2.12 173 2.12
  24  0.250  0.250  0.450- 156 2.11 152 2.12 150 2.12 142 2.12 149 2.12 165 2.12
  25  0.125  0.250  0.550- 156 2.12 155 2.12 172 2.12 147 2.12 149 2.12 153 2.14
  26  0.250  0.375  0.550- 171 2.11 180 2.12 156 2.12 155 2.12 150 2.12 154 2.15
  27  0.125  0.375  0.648- 155 2.10 177 2.12 153 2.12 154 2.12 170 2.12
  28  0.250  0.250  0.648- 156 2.10 169 2.12 154 2.12 153 2.12 146 2.12
  29  0.375  0.000  0.351- 157 2.12 144 2.12 159 2.12 199 2.12 224 2.12
  30  0.000  0.125  0.351- 158 2.12 143 2.12 160 2.12 168 2.12 223 2.12
  31  0.375  0.125  0.450- 163 2.11 159 2.12 142 2.12 157 2.12 165 2.12 222 2.12
  32  0.000  0.000  0.450- 164 2.12 160 2.12 141 2.12 158 2.12 198 2.12 221 2.12
  33  0.375  0.000  0.550- 163 2.12 228 2.12 203 2.12 148 2.12 157 2.12 161 2.14
  34  0.000  0.125  0.550- 164 2.12 227 2.12 147 2.12 172 2.12 158 2.12 162 2.14
  35  0.375  0.125  0.648- 163 2.10 169 2.11 226 2.12 146 2.12 161 2.12
  36  0.000  0.000  0.648- 164 2.10 162 2.12 202 2.12 145 2.12 225 2.12
  37  0.375  0.250  0.351- 165 2.12 159 2.12 152 2.12 167 2.12 232 2.12
  38  0.000  0.375  0.351- 166 2.12 151 2.12 168 2.12 192 2.12 231 2.12
  39  0.375  0.375  0.450- 171 2.11 167 2.12 150 2.12 165 2.12 189 2.12 230 2.12
  40  0.000  0.250  0.450- 172 2.11 168 2.12 166 2.12 149 2.12 158 2.12 229 2.12
  41  0.375  0.250  0.550- 171 2.11 236 2.11 156 2.12 163 2.12 165 2.12 169 2.14
  42  0.000  0.375  0.550- 196 2.12 172 2.12 155 2.12 235 2.12 166 2.12 170 2.14
  43  0.376  0.375  0.648- 234 2.11 171 2.11 193 2.12 169 2.12 154 2.13
  44  0.000  0.250  0.648- 172 2.10 170 2.12 162 2.12 233 2.12 153 2.12
  45  0.125  0.500  0.351- 173 2.12 151 2.12 175 2.12 176 2.12 192 2.12
  46  0.250  0.625  0.351- 174 2.12 175 2.12 176 2.12 184 2.12 191 2.12
  47  0.125  0.625  0.450- 179 2.11 175 2.12 173 2.12 174 2.12 181 2.12 190 2.12
  48  0.250  0.500  0.450- 180 2.11 176 2.12 174 2.12 150 2.12 173 2.12 189 2.12
  49  0.125  0.500  0.550- 180 2.12 155 2.12 196 2.12 179 2.12 173 2.12 177 2.14
  50  0.250  0.625  0.550- 180 2.12 195 2.12 179 2.12 188 2.12 174 2.12 178 2.14
  51  0.125  0.625  0.648- 179 2.10 178 2.12 177 2.12 194 2.12 185 2.12
  52  0.250  0.500  0.647- 180 2.09 193 2.11 154 2.12 177 2.12 178 2.12
  53  0.125  0.750  0.351- 181 2.12 175 2.12 183 2.12 184 2.12 200 2.12
  54  0.250  0.875  0.351- 182 2.12 144 2.12 183 2.12 184 2.12 199 2.12
  55  0.125  0.875  0.450- 187 2.11 183 2.12 182 2.12 141 2.12 181 2.12 198 2.12
  56  0.250  0.750  0.450- 188 2.11 184 2.12 182 2.12 174 2.12 181 2.12 197 2.12
  57  0.125  0.750  0.550- 188 2.12 204 2.12 179 2.12 187 2.12 181 2.12 185 2.14
  58  0.250  0.875  0.550- 148 2.12 188 2.12 203 2.12 187 2.12 182 2.12 186 2.14
  59  0.125  0.875  0.648- 187 2.10 185 2.12 145 2.12 186 2.12 202 2.12
  60  0.250  0.750  0.648- 188 2.10 178 2.12 201 2.12 185 2.12 186 2.12
  61  0.375  0.500  0.351- 189 2.12 176 2.12 167 2.12 191 2.12 256 2.12
  62  0.000  0.625  0.351- 190 2.12 175 2.12 192 2.12 200 2.12 255 2.12
  63  0.375  0.625  0.450- 195 2.11 191 2.12 174 2.12 189 2.12 197 2.12 254 2.12
  64  0.000  0.500  0.450- 196 2.11 192 2.12 190 2.12 166 2.12 173 2.12 253 2.12
  65  0.375  0.500  0.550- 260 2.11 171 2.12 195 2.12 180 2.12 189 2.12 193 2.14
  66  0.000  0.625  0.550- 179 2.12 259 2.12 196 2.12 204 2.12 190 2.12 194 2.14
  67  0.375  0.625  0.647- 195 2.09 193 2.11 258 2.12 178 2.12 201 2.12
  68  0.000  0.500  0.648- 196 2.10 177 2.12 170 2.12 257 2.12 194 2.12
  69  0.375  0.750  0.351- 197 2.12 191 2.12 184 2.12 199 2.12 264 2.12
  70  0.000  0.875  0.351- 198 2.12 183 2.12 160 2.12 200 2.12 263 2.12
  71  0.375  0.875  0.450- 203 2.11 199 2.12 197 2.12 157 2.12 182 2.12 262 2.12
  72  0.000  0.750  0.450- 204 2.11 200 2.12 198 2.12 181 2.12 190 2.12 261 2.12
  73  0.375  0.750  0.550- 195 2.12 268 2.12 203 2.12 188 2.12 197 2.12 201 2.14
  74  0.000  0.875  0.550- 164 2.12 187 2.12 267 2.12 204 2.12 198 2.12 202 2.14
  75  0.375  0.875  0.648- 203 2.10 266 2.12 186 2.12 201 2.12 161 2.12
  76  0.000  0.750  0.648- 204 2.10 185 2.12 265 2.12 202 2.12 194 2.12
  77  0.625  0.000  0.351- 205 2.12 207 2.12 208 2.12 224 2.12 247 2.12
  78  0.750  0.125  0.351- 206 2.12 207 2.12 208 2.12 216 2.12 223 2.12
  79  0.625  0.125  0.450- 211 2.11 207 2.12 205 2.12 206 2.12 213 2.12 222 2.12
  80  0.750  0.000  0.450- 212 2.11 208 2.12 205 2.12 206 2.12 221 2.12 246 2.12
  81  0.625  0.000  0.550- 211 2.12 228 2.12 251 2.12 212 2.12 205 2.12 209 2.14
  82  0.750  0.125  0.550- 211 2.12 220 2.12 212 2.12 227 2.12 206 2.12 210 2.14
  83  0.625  0.125  0.648- 211 2.09 217 2.11 226 2.12 209 2.12 210 2.12
  84  0.750  0.000  0.648- 212 2.10 210 2.12 250 2.12 209 2.12 225 2.12
  85  0.625  0.250  0.351- 213 2.12 207 2.12 215 2.12 216 2.12 232 2.12
  86  0.750  0.375  0.351- 214 2.12 215 2.12 216 2.12 231 2.12 240 2.12
  87  0.625  0.375  0.450- 219 2.11 215 2.12 213 2.12 214 2.12 230 2.12 237 2.12
  88  0.750  0.250  0.450- 220 2.11 216 2.12 214 2.12 206 2.12 213 2.12 229 2.12
  89  0.625  0.250  0.550- 219 2.11 236 2.12 220 2.12 211 2.12 213 2.12 217 2.14
  90  0.750  0.375  0.550- 219 2.11 220 2.12 244 2.12 235 2.12 214 2.12 218 2.15
  91  0.624  0.375  0.648- 234 2.11 219 2.11 241 2.12 217 2.12 218 2.13
  92  0.750  0.250  0.648- 220 2.09 217 2.11 218 2.12 210 2.12 233 2.12
  93  0.875  0.000  0.351- 221 2.12 208 2.12 160 2.12 223 2.12 263 2.12
  94  0.500  0.125  0.351- 222 2.12 207 2.12 159 2.12 224 2.12 232 2.12
  95  0.875  0.125  0.450- 227 2.11 223 2.12 221 2.12 158 2.12 206 2.12 229 2.12
  96  0.500  0.000  0.450- 228 2.12 224 2.12 222 2.12 157 2.12 205 2.12 262 2.12
  97  0.875  0.000  0.550- 227 2.12 267 2.12 164 2.12 212 2.12 221 2.12 225 2.14
  98  0.500  0.125  0.550- 236 2.11 211 2.12 163 2.12 228 2.12 222 2.12 226 2.15
  99  0.875  0.125  0.648- 227 2.10 210 2.12 233 2.12 225 2.12 162 2.12
 100  0.500  0.000  0.648- 228 2.10 161 2.12 209 2.12 266 2.12 226 2.12
 101  0.875  0.250  0.351- 229 2.12 216 2.12 223 2.12 168 2.12 231 2.12
 102  0.500  0.375  0.351- 230 2.12 215 2.12 167 2.12 232 2.12 256 2.12
 103  0.875  0.375  0.450- 235 2.11 231 2.12 229 2.12 166 2.12 214 2.12 253 2.12
 104  0.500  0.250  0.450- 236 2.11 232 2.12 222 2.12 230 2.12 165 2.12 213 2.12
 105  0.875  0.250  0.550- 220 2.12 235 2.12 172 2.12 227 2.12 229 2.12 233 2.14
 106  0.500  0.375  0.550- 234 2.09 230 2.12 260 2.12 219 2.12 171 2.12 236 2.12
 107  0.875  0.375  0.648- 235 2.10 233 2.12 218 2.12 257 2.12 170 2.12
 108  0.500  0.251  0.648- 236 2.10 234 2.11 217 2.12 169 2.12 226 2.13
 109  0.625  0.500  0.351- 237 2.12 215 2.12 239 2.12 240 2.12 256 2.12
 110  0.750  0.625  0.351- 238 2.12 239 2.12 240 2.12 248 2.12 255 2.12
 111  0.625  0.625  0.450- 243 2.11 239 2.12 237 2.12 238 2.12 245 2.12 254 2.12
 112  0.750  0.500  0.450- 244 2.11 240 2.12 238 2.12 214 2.12 237 2.12 253 2.12
 113  0.625  0.500  0.550- 260 2.11 219 2.11 243 2.12 244 2.12 237 2.12 241 2.13
 114  0.750  0.625  0.550- 244 2.12 243 2.12 259 2.12 252 2.12 238 2.12 242 2.14
 115  0.625  0.625  0.647- 243 2.09 241 2.11 249 2.12 258 2.12 242 2.12
 116  0.750  0.500  0.647- 244 2.09 241 2.11 218 2.12 257 2.12 242 2.12
 117  0.625  0.750  0.351- 245 2.12 239 2.12 247 2.12 248 2.12 264 2.12
 118  0.750  0.875  0.351- 246 2.12 208 2.12 247 2.12 248 2.12 263 2.12
 119  0.625  0.875  0.450- 251 2.11 247 2.12 246 2.12 205 2.12 245 2.12 262 2.12
 120  0.750  0.750  0.450- 252 2.11 248 2.12 246 2.12 238 2.12 245 2.12 261 2.12
 121  0.625  0.750  0.550- 243 2.11 268 2.12 251 2.12 252 2.12 245 2.12 249 2.14
 122  0.750  0.875  0.550- 212 2.12 252 2.12 267 2.12 251 2.12 246 2.12 250 2.14
 123  0.625  0.875  0.648- 251 2.10 266 2.12 249 2.12 209 2.12 250 2.12
 124  0.750  0.750  0.648- 252 2.10 242 2.12 250 2.12 249 2.12 265 2.12
 125  0.875  0.500  0.351- 253 2.12 231 2.12 240 2.12 192 2.12 255 2.12
 126  0.500  0.625  0.351- 254 2.12 239 2.12 191 2.12 256 2.12 264 2.12
 127  0.875  0.625  0.450- 259 2.11 255 2.12 253 2.12 190 2.12 238 2.12 261 2.12
 128  0.500  0.500  0.450- 260 2.11 256 2.12 237 2.12 254 2.12 189 2.12 230 2.12
 129  0.875  0.500  0.550- 244 2.11 196 2.12 235 2.12 259 2.12 253 2.12 257 2.14
 130  0.500  0.625  0.550- 260 2.11 195 2.12 243 2.12 268 2.12 254 2.12 258 2.15
 131  0.875  0.625  0.648- 259 2.10 242 2.12 194 2.12 257 2.12 265 2.12
 132  0.500  0.499  0.648- 234 2.11 260 2.12 193 2.12 241 2.12 258 2.13
 133  0.875  0.750  0.351- 261 2.12 248 2.12 255 2.12 200 2.12 263 2.12
 134  0.500  0.875  0.351- 262 2.12 224 2.12 247 2.12 199 2.12 264 2.12
 135  0.875  0.875  0.450- 267 2.11 263 2.12 246 2.12 261 2.12 198 2.12 221 2.12
 136  0.500  0.750  0.450- 268 2.11 264 2.12 254 2.12 262 2.12 197 2.12 245 2.12
 137  0.875  0.750  0.550- 252 2.12 259 2.12 204 2.12 267 2.12 261 2.12 265 2.14
 138  0.500  0.875  0.550- 203 2.12 251 2.12 228 2.12 268 2.12 262 2.12 266 2.14
 139  0.875  0.875  0.648- 267 2.10 265 2.12 225 2.12 202 2.12 250 2.12
 140  0.500  0.750  0.648- 268 2.10 258 2.12 201 2.12 249 2.12 266 2.12
 141  0.125  0.000  0.450-  13 2.12  15 2.12  16 2.12  32 2.12  55 2.12  17 2.12
 142  0.250  0.125  0.450-  14 2.12  15 2.12  16 2.12  24 2.12  31 2.12  18 2.12
 143  0.125  0.125  0.351-  15 2.12  14 2.12  13 2.12  21 2.12  30 2.12
 144  0.250  0.000  0.351-  16 2.12  14 2.12  13 2.12  29 2.12  54 2.12
 145  0.125  0.000  0.650-  59 2.12  36 2.12  20 2.12  19 2.12  17 2.14
 146  0.250  0.125  0.650-  20 2.12  19 2.12  35 2.12  28 2.12  18 2.14
 147  0.125  0.125  0.549-  19 2.10  15 2.11  17 2.12  34 2.12  25 2.12  18 2.12
 148  0.250  0.000  0.549-  20 2.10  16 2.11  58 2.12  17 2.12  18 2.12  33 2.12
 149  0.125  0.250  0.450-  21 2.12  15 2.12  23 2.12  24 2.12  40 2.12  25 2.12
 150  0.250  0.375  0.450-  22 2.12  23 2.12  24 2.12  39 2.12  48 2.12  26 2.12
 151  0.125  0.375  0.351-  23 2.12  22 2.12  21 2.12  38 2.12  45 2.12
 152  0.250  0.250  0.351-  24 2.12  21 2.12  22 2.12  14 2.12  37 2.12
 153  0.125  0.250  0.650-  19 2.12  27 2.12  44 2.12  28 2.12  25 2.14
 154  0.250  0.375  0.650-  28 2.12  52 2.12  27 2.12  43 2.13  26 2.15
 155  0.125  0.375  0.549-  27 2.10  23 2.11  25 2.12  49 2.12  42 2.12  26 2.12
 156  0.250  0.250  0.549-  28 2.10  24 2.11  25 2.12  18 2.12  26 2.12  41 2.12
 157  0.375  0.000  0.450-  29 2.12  16 2.12  31 2.12  71 2.12  96 2.12  33 2.12
 158  0.000  0.125  0.450-  30 2.12  15 2.12  32 2.12  40 2.12  95 2.12  34 2.12
 159  0.375  0.125  0.351-  31 2.12  29 2.12  14 2.12  37 2.12  94 2.12
 160  0.000  0.000  0.351-  32 2.12  30 2.12  13 2.12  70 2.12  93 2.12
 161  0.375  0.000  0.650-  20 2.12 100 2.12  75 2.12  35 2.12  33 2.14
 162  0.000  0.125  0.650-  44 2.12  36 2.12  99 2.12  19 2.12  34 2.14
 163  0.375  0.125  0.549-  35 2.10  31 2.11  33 2.12  18 2.12  98 2.12  41 2.12
 164  0.000  0.000  0.549-  36 2.10  32 2.12  74 2.12  34 2.12  17 2.12  97 2.12
 165  0.375  0.250  0.450-  37 2.12  31 2.12  24 2.12  39 2.12 104 2.12  41 2.12
 166  0.000  0.375  0.450-  38 2.12  23 2.12  40 2.12  64 2.12 103 2.12  42 2.12
 167  0.375  0.375  0.351-  39 2.12  37 2.12  22 2.12  61 2.12 102 2.12
 168  0.000  0.250  0.351-  40 2.12  30 2.12  38 2.12  21 2.12 101 2.12
 169  0.375  0.250  0.650-  35 2.11  28 2.12 108 2.12  43 2.12  41 2.14
 170  0.000  0.375  0.650-  44 2.12  68 2.12 107 2.12  27 2.12  42 2.14
 171  0.375  0.375  0.549-  43 2.11  26 2.11  39 2.11  41 2.11  65 2.12 106 2.12
 172  0.000  0.250  0.549-  44 2.10  40 2.11  42 2.12  25 2.12  34 2.12 105 2.12
 173  0.125  0.500  0.450-  45 2.12  23 2.12  47 2.12  48 2.12  64 2.12  49 2.12
 174  0.250  0.625  0.450-  46 2.12  47 2.12  48 2.12  56 2.12  63 2.12  50 2.12
 175  0.125  0.625  0.351-  47 2.12  46 2.12  45 2.12  53 2.12  62 2.12
 176  0.250  0.500  0.351-  48 2.12  45 2.12  46 2.12  22 2.12  61 2.12
 177  0.125  0.500  0.650-  27 2.12  51 2.12  68 2.12  52 2.12  49 2.14
 178  0.250  0.625  0.650-  51 2.12  60 2.12  67 2.12  52 2.12  50 2.14
 179  0.125  0.625  0.549-  51 2.10  47 2.11  66 2.12  57 2.12  50 2.12  49 2.12
 180  0.250  0.500  0.549-  52 2.09  48 2.11  49 2.12  50 2.12  26 2.12  65 2.12
 181  0.125  0.750  0.450-  53 2.12  47 2.12  55 2.12  56 2.12  72 2.12  57 2.12
 182  0.250  0.875  0.450-  54 2.12  16 2.12  55 2.12  56 2.12  71 2.12  58 2.12
 183  0.125  0.875  0.351-  55 2.12  53 2.12  54 2.12  13 2.12  70 2.12
 184  0.250  0.750  0.351-  56 2.12  53 2.12  54 2.12  46 2.12  69 2.12
 185  0.125  0.750  0.650-  76 2.12  59 2.12  51 2.12  60 2.12  57 2.14
 186  0.250  0.875  0.650-  59 2.12  75 2.12  20 2.12  60 2.12  58 2.14
 187  0.125  0.875  0.549-  59 2.10  55 2.11  74 2.12  17 2.12  58 2.12  57 2.12
 188  0.250  0.750  0.549-  60 2.10  56 2.11  57 2.12  58 2.12  73 2.12  50 2.12
 189  0.375  0.500  0.450-  61 2.12  48 2.12  39 2.12  63 2.12 128 2.12  65 2.12
 190  0.000  0.625  0.450-  62 2.12  47 2.12  64 2.12  72 2.12 127 2.12  66 2.12
 191  0.375  0.625  0.351-  63 2.12  61 2.12  46 2.12  69 2.12 126 2.12
 192  0.000  0.500  0.351-  64 2.12  45 2.12  62 2.12  38 2.12 125 2.12
 193  0.375  0.500  0.650-  52 2.11  67 2.11  43 2.12 132 2.12  65 2.14
 194  0.000  0.625  0.650- 131 2.12  51 2.12  76 2.12  68 2.12  66 2.14
 195  0.375  0.625  0.549-  67 2.09  63 2.11  73 2.12  50 2.12 130 2.12  65 2.12
 196  0.000  0.500  0.549-  68 2.10  64 2.11 129 2.12  42 2.12  49 2.12  66 2.12
 197  0.375  0.750  0.450-  69 2.12  63 2.12  56 2.12  71 2.12 136 2.12  73 2.12
 198  0.000  0.875  0.450-  70 2.12  55 2.12  32 2.12  72 2.12 135 2.12  74 2.12
 199  0.375  0.875  0.351-  71 2.12  54 2.12  69 2.12  29 2.12 134 2.12
 200  0.000  0.750  0.351-  72 2.12  62 2.12  70 2.12  53 2.12 133 2.12
 201  0.375  0.750  0.650- 140 2.12  75 2.12  60 2.12  67 2.12  73 2.14
 202  0.000  0.875  0.650-  76 2.12 139 2.12  59 2.12  36 2.12  74 2.14
 203  0.375  0.875  0.549-  75 2.10  71 2.11 138 2.12  58 2.12  73 2.12  33 2.12
 204  0.000  0.750  0.549-  76 2.10  72 2.11  57 2.12 137 2.12  74 2.12  66 2.12
 205  0.625  0.000  0.450-  77 2.12  79 2.12  80 2.12  96 2.12 119 2.12  81 2.12
 206  0.750  0.125  0.450-  78 2.12  79 2.12  80 2.12  88 2.12  95 2.12  82 2.12
 207  0.625  0.125  0.351-  79 2.12  78 2.12  77 2.12  85 2.12  94 2.12
 208  0.750  0.000  0.351-  80 2.12  78 2.12  77 2.12  93 2.12 118 2.12
 209  0.625  0.000  0.650-  84 2.12 100 2.12 123 2.12  83 2.12  81 2.14
 210  0.750  0.125  0.650-  84 2.12  99 2.12  83 2.12  92 2.12  82 2.14
 211  0.625  0.125  0.549-  83 2.09  79 2.11  81 2.12  82 2.12  98 2.12  89 2.12
 212  0.750  1.000  0.549-  84 2.10  80 2.11 122 2.12  97 2.12  82 2.12  81 2.12
 213  0.625  0.250  0.450-  85 2.12  79 2.12  87 2.12  88 2.12 104 2.12  89 2.12
 214  0.750  0.375  0.450-  86 2.12  87 2.12  88 2.12 103 2.12 112 2.12  90 2.12
 215  0.625  0.375  0.351-  87 2.12  86 2.12  85 2.12 102 2.12 109 2.12
 216  0.750  0.250  0.351-  88 2.12  85 2.12  86 2.12  78 2.12 101 2.12
 217  0.625  0.250  0.650-  83 2.11  92 2.11 108 2.12  91 2.12  89 2.14
 218  0.750  0.375  0.650- 116 2.12 107 2.12  92 2.12  91 2.13  90 2.15
 219  0.625  0.375  0.549-  90 2.11  87 2.11  89 2.11  91 2.11 113 2.11 106 2.12
 220  0.750  0.250  0.549-  92 2.09  88 2.11 105 2.12  82 2.12  90 2.12  89 2.12
 221  0.875  0.000  0.450-  93 2.12  80 2.12  32 2.12  95 2.12 135 2.12  97 2.12
 222  0.500  0.125  0.450-  94 2.12  79 2.12  31 2.12  96 2.12 104 2.12  98 2.12
 223  0.875  0.125  0.351-  95 2.12  78 2.12  93 2.12  30 2.12 101 2.12
 224  0.500  0.000  0.351-  96 2.12  77 2.12  94 2.12  29 2.12 134 2.12
 225  0.875  0.000  0.650- 139 2.12  36 2.12  84 2.12  99 2.12  97 2.14
 226  0.500  0.125  0.650-  83 2.12  35 2.12 100 2.12 108 2.13  98 2.15
 227  0.875  0.125  0.549-  99 2.10  95 2.11  97 2.12  34 2.12 105 2.12  82 2.12
 228  0.500  0.000  0.550- 100 2.10  96 2.12  33 2.12  81 2.12 138 2.12  98 2.12
 229  0.875  0.250  0.450- 101 2.12  88 2.12  95 2.12  40 2.12 103 2.12 105 2.12
 230  0.500  0.375  0.450- 102 2.12  87 2.12  39 2.12 104 2.12 128 2.12 106 2.12
 231  0.875  0.375  0.351- 103 2.12  86 2.12 101 2.12  38 2.12 125 2.12
 232  0.500  0.250  0.351- 104 2.12  85 2.12  94 2.12 102 2.12  37 2.12
 233  0.875  0.250  0.650-  99 2.12  44 2.12 107 2.12  92 2.12 105 2.14
 234  0.500  0.375  0.648- 106 2.09  43 2.11 108 2.11  91 2.11 132 2.11
 235  0.875  0.375  0.549- 107 2.10 103 2.11 105 2.12 129 2.12  42 2.12  90 2.12
 236  0.500  0.250  0.549- 108 2.10  98 2.11 104 2.11  41 2.11  89 2.12 106 2.12
 237  0.625  0.500  0.450- 109 2.12  87 2.12 111 2.12 112 2.12 128 2.12 113 2.12
 238  0.750  0.625  0.450- 110 2.12 111 2.12 112 2.12 120 2.12 127 2.12 114 2.12
 239  0.625  0.625  0.351- 111 2.12 110 2.12 109 2.12 117 2.12 126 2.12
 240  0.750  0.500  0.351- 112 2.12 109 2.12 110 2.12  86 2.12 125 2.12
 241  0.625  0.500  0.650- 116 2.11 115 2.11  91 2.12 132 2.12 113 2.13
 242  0.750  0.625  0.650- 124 2.12 131 2.12 116 2.12 115 2.12 114 2.14
 243  0.625  0.625  0.549- 115 2.09 111 2.11 121 2.11 114 2.12 130 2.12 113 2.12
 244  0.750  0.500  0.549- 116 2.09 112 2.11 129 2.11 114 2.12  90 2.12 113 2.12
 245  0.625  0.750  0.450- 117 2.12 111 2.12 119 2.12 120 2.12 136 2.12 121 2.12
 246  0.750  0.875  0.450- 118 2.12  80 2.12 119 2.12 120 2.12 135 2.12 122 2.12
 247  0.625  0.875  0.351- 119 2.12 117 2.12 118 2.12  77 2.12 134 2.12
 248  0.750  0.750  0.351- 120 2.12 117 2.12 118 2.12 110 2.12 133 2.12
 249  0.625  0.750  0.650- 123 2.12 140 2.12 124 2.12 115 2.12 121 2.14
 250  0.750  0.875  0.650-  84 2.12 139 2.12 123 2.12 124 2.12 122 2.14
 251  0.625  0.875  0.549- 123 2.10 119 2.11 138 2.12 121 2.12  81 2.12 122 2.12
 252  0.750  0.750  0.549- 124 2.10 120 2.11 122 2.12 137 2.12 114 2.12 121 2.12
 253  0.875  0.500  0.450- 125 2.12 103 2.12 112 2.12  64 2.12 127 2.12 129 2.12
 254  0.500  0.625  0.450- 126 2.12 111 2.12  63 2.12 128 2.12 136 2.12 130 2.12
 255  0.875  0.625  0.351- 127 2.12 110 2.12 125 2.12  62 2.12 133 2.12
 256  0.500  0.500  0.351- 128 2.12 102 2.12 109 2.12 126 2.12  61 2.12
 257  0.875  0.500  0.650- 131 2.12  68 2.12 107 2.12 116 2.12 129 2.14
 258  0.500  0.625  0.650- 140 2.12 115 2.12  67 2.12 132 2.13 130 2.15
 259  0.875  0.625  0.549- 131 2.10 127 2.11  66 2.12 137 2.12 114 2.12 129 2.12
 260  0.500  0.500  0.549- 130 2.11 128 2.11  65 2.11 113 2.11 132 2.12 106 2.12
 261  0.875  0.750  0.450- 133 2.12 120 2.12 127 2.12  72 2.12 135 2.12 137 2.12
 262  0.500  0.875  0.450- 134 2.12  96 2.12 119 2.12  71 2.12 136 2.12 138 2.12
 263  0.875  0.875  0.351- 135 2.12  93 2.12 118 2.12 133 2.12  70 2.12
 264  0.500  0.750  0.351- 136 2.12 117 2.12 126 2.12 134 2.12  69 2.12
 265  0.875  0.750  0.650-  76 2.12 139 2.12 131 2.12 124 2.12 137 2.14
 266  0.500  0.875  0.650-  75 2.12 123 2.12 140 2.12 100 2.12 138 2.14
 267  0.875  0.875  0.549- 139 2.10 135 2.11  97 2.12  74 2.12 137 2.12 122 2.12
 268  0.500  0.750  0.549- 140 2.10 136 2.11  73 2.12 121 2.12 138 2.12 130 2.12
 

IMPORTANT INFORMATION: All symmetrisations will be switched off!
NOSYMM: (Re-)initialisation of all symmetry stuff for point group C_1.


----------------------------------------------------------------------------------------

                                     Primitive cell                                     

  volume of cell :    6122.6422

  direct lattice vectors                    reciprocal lattice vectors
    16.934285261  0.000000000  0.000000000     0.059051798  0.000000000  0.000000000
     0.000000000 16.934285261  0.000000000     0.000000000  0.059051798  0.000000000
     0.000000000  0.000000000 21.350356973     0.000000000  0.000000000  0.046837624

  length of vectors
    16.934285261 16.934285261 21.350356973     0.059051798  0.059051798  0.046837624

  position of ions in fractional coordinates (direct lattice)
     0.478307706  0.468933165  0.794352240
     0.560256608  0.459006490  0.792658189
     0.592725152  0.382995775  0.794676435
     0.543248004  0.317059693  0.798568674
     0.461196777  0.326982986  0.800381812
     0.428805204  0.402861589  0.798137754
     0.452918729  0.528115179  0.792730242
     0.598951711  0.510271167  0.789335501
     0.656746799  0.375265044  0.793362808
     0.568772629  0.257924301  0.799979299
     0.422523098  0.275573081  0.803141301
     0.364857503  0.410778677  0.799414678
     0.125000000  0.000000000  0.351282183
     0.250000000  0.125000000  0.351282183
     0.125000000  0.125000000  0.450427394
     0.250000000  0.000000000  0.450427394
     0.125004042  0.000020434  0.549801351
     0.250028827  0.125029374  0.549784929
     0.125035931  0.125033884  0.647708193
     0.250031231  0.000035488  0.647695026
     0.125000000  0.250000000  0.351282183
     0.250000000  0.375000000  0.351282183
     0.125000000  0.375000000  0.450427394
     0.250000000  0.250000000  0.450427394
     0.125025442  0.250018872  0.549793535
     0.250157755  0.375022846  0.549797669
     0.125049235  0.375016777  0.647697132
     0.250097749  0.250085291  0.647615664
     0.375000000  0.000000000  0.351282183
     0.000000000  0.125000000  0.351282183
     0.375000000  0.125000000  0.450427394
     0.000000000  0.000000000  0.450427394
     0.375025741  0.000033328  0.549791223
     0.000010245  0.125001267  0.549803092
     0.375076347  0.125097612  0.647593394
     0.000013572  0.000025980  0.647717308
     0.375000000  0.250000000  0.351282183
     0.000000000  0.375000000  0.351282183
     0.375000000  0.375000000  0.450427394
     0.000000000  0.250000000  0.450427394
     0.375119507  0.250145656  0.549802474
     0.000006282  0.375004582  0.549806573
     0.375599307  0.375117449  0.647949275
     0.000010570  0.250019263  0.647699616
     0.125000000  0.500000000  0.351282183
     0.250000000  0.625000000  0.351282183
     0.125000000  0.625000000  0.450427394
     0.250000000  0.500000000  0.450427394
     0.125003619  0.499995638  0.549761224
     0.250002785  0.624994117  0.549743140
     0.125009701  0.625015124  0.647673204
     0.250057380  0.499999085  0.647478592
     0.125000000  0.750000000  0.351282183
     0.250000000  0.875000000  0.351282183
     0.125000000  0.875000000  0.450427394
     0.250000000  0.750000000  0.450427394
     0.125001753  0.750015729  0.549786470
     0.250009882  0.875020762  0.549793377
     0.125019048  0.875022732  0.647709679
     0.250003332  0.750004020  0.647677985
     0.375000000  0.500000000  0.351282183
     0.000000000  0.625000000  0.351282183
     0.375000000  0.625000000  0.450427394
     0.000000000  0.500000000  0.450427394
     0.375179266  0.499901986  0.549826561
     0.000010190  0.625005326  0.549780675
     0.375002783  0.624938422  0.647449135
     0.000010029  0.500004271  0.647677191
     0.375000000  0.750000000  0.351282183
     0.000000000  0.875000000  0.351282183
     0.375000000  0.875000000  0.450427394
     0.000000000  0.750000000  0.450427394
     0.375022750  0.750001873  0.549765078
     0.000014345  0.875027941  0.549799544
     0.375013098  0.875004571  0.647699411
     0.000015112  0.750023487  0.647691956
     0.625000000  0.000000000  0.351282183
     0.750000000  0.125000000  0.351282183
     0.625000000  0.125000000  0.450427394
     0.750000000  0.000000000  0.450427394
     0.624982233  0.000021337  0.549772285
     0.749989738  0.125014632  0.549762917
     0.624962360  0.125074837  0.647521275
     0.749997074  0.000021998  0.647684163
     0.625000000  0.250000000  0.351282183
     0.750000000  0.375000000  0.351282183
     0.625000000  0.375000000  0.450427394
     0.750000000  0.250000000  0.450427394
     0.624907205  0.250176513  0.549819837
     0.749806132  0.375020160  0.549824904
     0.624391709  0.375111350  0.648362914
     0.749917324  0.250049922  0.647545999
     0.875000000  0.000000000  0.351282183
     0.500000000  0.125000000  0.351282183
     0.875000000  0.125000000  0.450427394
     0.500000000  0.000000000  0.450427394
     0.875015922  0.000013772  0.549796103
     0.500007405  0.125150425  0.549783820
     0.874991322  0.125021531  0.647693089
     0.500007690  0.000052962  0.647694500
     0.875000000  0.250000000  0.351282183
     0.500000000  0.375000000  0.351282183
     0.875000000  0.375000000  0.450427394
     0.500000000  0.250000000  0.450427394
     0.874995336  0.250019811  0.549781021
     0.500066456  0.375128214  0.549693226
     0.874976316  0.375013738  0.647691873
     0.500058468  0.250598941  0.647791645
     0.625000000  0.500000000  0.351282183
     0.750000000  0.625000000  0.351282183
     0.625000000  0.625000000  0.450427394
     0.750000000  0.500000000  0.450427394
     0.624851456  0.499873414  0.549831875
     0.750015847  0.625007383  0.549719111
     0.625010824  0.625003745  0.647323929
     0.749986637  0.500023994  0.647372679
     0.625000000  0.750000000  0.351282183
     0.750000000  0.875000000  0.351282183
     0.625000000  0.875000000  0.450427394
     0.750000000  0.750000000  0.450427394
     0.624983451  0.750021099  0.549742046
     0.750007514  0.875020912  0.549787618
     0.624998287  0.875008623  0.647683609
     0.750022713  0.750022348  0.647670659
     0.875000000  0.500000000  0.351282183
     0.500000000  0.625000000  0.351282183
     0.875000000  0.625000000  0.450427394
     0.500000000  0.500000000  0.450427394
     0.875024155  0.499991000  0.549741621
     0.500001410  0.624778623  0.549817617
     0.875020814  0.625027823  0.647660941
     0.500044031  0.499415892  0.648484573
     0.875000000  0.750000000  0.351282183
     0.500000000  0.875000000  0.351282183
     0.875000000  0.875000000  0.450427394
     0.500000000  0.750000000  0.450427394
     0.875018889  0.750021047  0.549781544
     0.499995958  0.875013039  0.549808902
     0.875013893  0.875024133  0.647703512
     0.500002613  0.749962974  0.647681830
     0.125000000  0.000000000  0.450427394
     0.250000000  0.125000000  0.450427394
     0.125000000  0.125000000  0.351282183
     0.250000000  0.000000000  0.351282183
     0.125020906  0.000018146  0.650094244
     0.250016907  0.124998654  0.650151340
     0.125001733  0.125006251  0.549445658
     0.250003396  0.000009132  0.549420987
     0.125000000  0.250000000  0.450427394
     0.250000000  0.375000000  0.450427394
     0.125000000  0.375000000  0.351282183
     0.250000000  0.250000000  0.351282183
     0.125011499  0.250018964  0.650133443
     0.250069971  0.375040323  0.650351558
     0.125033023  0.375003229  0.549460269
     0.249975024  0.249987156  0.549461503
     0.375000000  0.000000000  0.450427394
     0.000000000  0.125000000  0.450427394
     0.375000000  0.125000000  0.351282183
     0.000000000  0.000000000  0.351282183
     0.375015116  0.000023608  0.650105234
     0.000010253  0.125028501  0.650099520
     0.374976592  0.124979711  0.549438992
     0.000011382  0.000013371  0.549491056
     0.375000000  0.250000000  0.450427394
     0.000000000  0.375000000  0.450427394
     0.375000000  0.375000000  0.351282183
     0.000000000  0.250000000  0.351282183
     0.374958097  0.249941882  0.650208473
     0.000006666  0.375001947  0.650102662
     0.374717602  0.374990767  0.549293469
     0.000017641  0.250014659  0.549423226
     0.125000000  0.500000000  0.450427394
     0.250000000  0.625000000  0.450427394
     0.125000000  0.625000000  0.351282183
     0.250000000  0.500000000  0.351282183
     0.125012379  0.500015676  0.650081957
     0.249946703  0.625061508  0.650107590
     0.124981309  0.625025779  0.549417853
     0.249916260  0.500049976  0.549370757
     0.125000000  0.750000000  0.450427394
     0.250000000  0.875000000  0.450427394
     0.125000000  0.875000000  0.351282183
     0.250000000  0.750000000  0.351282183
     0.124979137  0.750033512  0.650087548
     0.250015595  0.875029726  0.650105614
     0.125003560  0.875025303  0.549435452
     0.249989226  0.750030937  0.549441008
     0.375000000  0.500000000  0.450427394
     0.000000000  0.625000000  0.450427394
     0.375000000  0.625000000  0.351282183
     0.000000000  0.500000000  0.351282183
     0.374714971  0.500217233  0.649918009
     0.000008120  0.625019798  0.650069514
     0.374968822  0.625097752  0.549391862
     0.000009342  0.499990220  0.549470770
     0.375000000  0.750000000  0.450427394
     0.000000000  0.875000000  0.450427394
     0.375000000  0.875000000  0.351282183
     0.000000000  0.750000000  0.351282183
     0.375010405  0.749997407  0.650116200
     0.000014398  0.875018570  0.650086298
     0.375015490  0.875015134  0.549436606
     0.000012126  0.750022378  0.549410699
     0.625000000  0.000000000  0.450427394
     0.750000000  0.125000000  0.450427394
     0.625000000  0.125000000  0.351282183
     0.750000000  0.000000000  0.351282183
     0.625003586  0.000016141  0.650092857
     0.750025259  0.124970725  0.650135649
     0.625034438  0.124946525  0.549397108
     0.750012460  0.999990773  0.549413494
     0.625000000  0.250000000  0.450427394
     0.750000000  0.375000000  0.450427394
     0.625000000  0.375000000  0.351282183
     0.750000000  0.250000000  0.351282183
     0.625125588  0.249829368  0.650066257
     0.749978032  0.375049644  0.650463540
     0.625312128  0.374985007  0.549352939
     0.750067432  0.249983755  0.549443878
     0.875000000  0.000000000  0.450427394
     0.500000000  0.125000000  0.450427394
     0.875000000  0.125000000  0.351282183
     0.500000000  0.000000000  0.351282183
     0.875005968  0.000009097  0.650089017
     0.500021295  0.125114508  0.650278018
     0.875022267  0.124996884  0.549432418
     0.499999805  0.000027973  0.549501675
     0.875000000  0.250000000  0.450427394
     0.500000000  0.375000000  0.450427394
     0.875000000  0.375000000  0.351282183
     0.500000000  0.250000000  0.351282183
     0.875010347  0.250011124  0.650126873
     0.499981672  0.374987298  0.647778241
     0.874978014  0.374996993  0.549467711
     0.499994296  0.249733189  0.549253324
     0.625000000  0.500000000  0.450427394
     0.750000000  0.625000000  0.450427394
     0.625000000  0.625000000  0.351282183
     0.750000000  0.500000000  0.351282183
     0.625401567  0.500376836  0.649663211
     0.750079238  0.625084477  0.650129432
     0.625045339  0.625143250  0.549340600
     0.750145674  0.500055977  0.549335660
     0.625000000  0.750000000  0.450427394
     0.750000000  0.875000000  0.450427394
     0.625000000  0.875000000  0.351282183
     0.750000000  0.750000000  0.351282183
     0.625007593  0.750008336  0.650076562
     0.750006196  0.875030892  0.650099965
     0.624986791  0.875019159  0.549425234
     0.750029824  0.750037837  0.549436282
     0.875000000  0.500000000  0.450427394
     0.500000000  0.625000000  0.450427394
     0.875000000  0.625000000  0.351282183
     0.500000000  0.500000000  0.351282183
     0.875005444  0.500025159  0.650072372
     0.500011607  0.625000567  0.650426868
     0.875038990  0.625030625  0.549410594
     0.499989387  0.500313237  0.549394113
     0.875000000  0.750000000  0.450427394
     0.500000000  0.875000000  0.450427394
     0.875000000  0.875000000  0.351282183
     0.500000000  0.750000000  0.351282183
     0.875044530  0.750042588  0.650082878
     0.500004867  0.874996170  0.650105935
     0.875024759  0.875028573  0.549428998
     0.499998032  0.749981198  0.549445313

  ion indices of the primitive-cell ions
   primitive index   ion index
                 1           1
                 2           2
                 3           3
                 4           4
                 5           5
                 6           6
                 7           7
                 8           8
                 9           9
                10          10
                11          11
                12          12
                13          13
                14          14
                15          15
                16          16
                17          17
                18          18
                19          19
                20          20
                21          21
                22          22
                23          23
                24          24
                25          25
                26          26
                27          27
                28          28
                29          29
                30          30
                31          31
                32          32
                33          33
                34          34
                35          35
                36          36
                37          37
                38          38
                39          39
                40          40
                41          41
                42          42
                43          43
                44          44
                45          45
                46          46
                47          47
                48          48
                49          49
                50          50
                51          51
                52          52
                53          53
                54          54
                55          55
                56          56
                57          57
                58          58
                59          59
                60          60
                61          61
                62          62
                63          63
                64          64
                65          65
                66          66
                67          67
                68          68
                69          69
                70          70
                71          71
                72          72
                73          73
                74          74
                75          75
                76          76
                77          77
                78          78
                79          79
                80          80
                81          81
                82          82
                83          83
                84          84
                85          85
                86          86
                87          87
                88          88
                89          89
                90          90
                91          91
                92          92
                93          93
                94          94
                95          95
                96          96
                97          97
                98          98
                99          99
               100         100
               101         101
               102         102
               103         103
               104         104
               105         105
               106         106
               107         107
               108         108
               109         109
               110         110
               111         111
               112         112
               113         113
               114         114
               115         115
               116         116
               117         117
               118         118
               119         119
               120         120
               121         121
               122         122
               123         123
               124         124
               125         125
               126         126
               127         127
               128         128
               129         129
               130         130
               131         131
               132         132
               133         133
               134         134
               135         135
               136         136
               137         137
               138         138
               139         139
               140         140
               141         141
               142         142
               143         143
               144         144
               145         145
               146         146
               147         147
               148         148
               149         149
               150         150
               151         151
               152         152
               153         153
               154         154
               155         155
               156         156
               157         157
               158         158
               159         159
               160         160
               161         161
               162         162
               163         163
               164         164
               165         165
               166         166
               167         167
               168         168
               169         169
               170         170
               171         171
               172         172
               173         173
               174         174
               175         175
               176         176
               177         177
               178         178
               179         179
               180         180
               181         181
               182         182
               183         183
               184         184
               185         185
               186         186
               187         187
               188         188
               189         189
               190         190
               191         191
               192         192
               193         193
               194         194
               195         195
               196         196
               197         197
               198         198
               199         199
               200         200
               201         201
               202         202
               203         203
               204         204
               205         205
               206         206
               207         207
               208         208
               209         209
               210         210
               211         211
               212         212
               213         213
               214         214
               215         215
               216         216
               217         217
               218         218
               219         219
               220         220
               221         221
               222         222
               223         223
               224         224
               225         225
               226         226
               227         227
               228         228
               229         229
               230         230
               231         231
               232         232
               233         233
               234         234
               235         235
               236         236
               237         237
               238         238
               239         239
               240         240
               241         241
               242         242
               243         243
               244         244
               245         245
               246         246
               247         247
               248         248
               249         249
               250         250
               251         251
               252         252
               253         253
               254         254
               255         255
               256         256
               257         257
               258         258
               259         259
               260         260
               261         261
               262         262
               263         263
               264         264
               265         265
               266         266
               267         267
               268         268

----------------------------------------------------------------------------------------

 
 
 KPOINTS: pymatgen v2020.8.13 with grid density = 

Automatic generation of k-mesh.
 Grid dimensions read from file:
 generate k-points for:    1    1    1

 Generating k-lattice:

  Cartesian coordinates                     Fractional coordinates (reciprocal lattice)
     0.059051798  0.000000000  0.000000000     1.000000000  0.000000000  0.000000000
     0.000000000  0.059051798  0.000000000     0.000000000  1.000000000  0.000000000
     0.000000000  0.000000000  0.046837624     0.000000000  0.000000000  1.000000000

  Length of vectors
     0.059051798  0.059051798  0.046837624

  Shift w.r.t. Gamma in fractional coordinates (k-lattice)
     0.000000000  0.000000000  0.000000000

 
 Subroutine IBZKPT returns following result:
 ===========================================
 
 Found      1 irreducible k-points:
 
 Following reciprocal coordinates:
            Coordinates               Weight
  0.000000  0.000000  0.000000      1.000000
 
 Following cartesian coordinates:
            Coordinates               Weight
  0.000000  0.000000  0.000000      1.000000
 
 
 Subroutine IBZKPT_HF returns following result:
 ==============================================
 
 Found      1 k-points in 1st BZ
 the following      1 k-points will be used (e.g. in the exchange kernel)
 Following reciprocal coordinates:   # in IRBZ
  0.000000  0.000000  0.000000    1.00000000   1 t-inv F


--------------------------------------------------------------------------------------------------------




 Dimension of arrays:
   k-points           NKPTS =      1   k-points in BZ     NKDIM =      1   number of bands    NBANDS=   1216
   number of dos      NEDOS =    301   number of ions     NIONS =    268
   non local maximal  LDIM  =      5   non local SUM 2l+1 LMDIM =     13
   total plane-waves  NPLWV = ******
   max r-space proj   IRMAX =   3733   max aug-charges    IRDMAX=   8375
   dimension x,y,z NGX =   126 NGY =  126 NGZ =  160
   dimension x,y,z NGXF=   252 NGYF=  252 NGZF=  320
   support grid    NGXF=   252 NGYF=  252 NGZF=  320
   ions per type =               6   6 128 128
   NGX,Y,Z   is equivalent  to a cutoff of  12.37, 12.37, 12.46 a.u.
   NGXF,Y,Z  is equivalent  to a cutoff of  24.74, 24.74, 24.92 a.u.

 SYSTEM =  MgO-rocksalt                            
 POSCAR =   C  H Mg  O                             

--------------------------------------------------------------------------------------------------------


  energy-cutoff  :      520.00
  volume of cell :     6122.64
      direct lattice vectors                 reciprocal lattice vectors
    16.934285261  0.000000000  0.000000000     0.059051798  0.000000000  0.000000000
     0.000000000 16.934285261  0.000000000     0.000000000  0.059051798  0.000000000
     0.000000000  0.000000000 21.350356973     0.000000000  0.000000000  0.046837624

  length of vectors
    16.934285261 16.934285261 21.350356973     0.059051798  0.059051798  0.046837624


 
 k-points in units of 2pi/SCALE and weight: pymatgen v2020.8.13 with grid density = 
   0.00000000  0.00000000  0.00000000       1.000
 
 k-points in reciprocal lattice and weights: pymatgen v2020.8.13 with grid density = 
   0.00000000  0.00000000  0.00000000       1.000
 
 position of ions in fractional coordinates (direct lattice) 
   0.47830771  0.46893317  0.79435224
   0.56025661  0.45900649  0.79265819
   0.59272515  0.38299578  0.79467644
   0.54324800  0.31705969  0.79856867
   0.46119678  0.32698299  0.80038181
   0.42880520  0.40286159  0.79813775
   0.45291873  0.52811518  0.79273024
   0.59895171  0.51027117  0.78933550
   0.65674680  0.37526504  0.79336281
   0.56877263  0.25792430  0.79997930
   0.42252310  0.27557308  0.80314130
   0.36485750  0.41077868  0.79941468
   0.12500000  0.00000000  0.35128218
   0.25000000  0.12500000  0.35128218
   0.12500000  0.12500000  0.45042739
   0.25000000  0.00000000  0.45042739
   0.12500404  0.00002043  0.54980135
   0.25002883  0.12502937  0.54978493
   0.12503593  0.12503388  0.64770819
   0.25003123  0.00003549  0.64769503
   0.12500000  0.25000000  0.35128218
   0.25000000  0.37500000  0.35128218
   0.12500000  0.37500000  0.45042739
   0.25000000  0.25000000  0.45042739
   0.12502544  0.25001887  0.54979354
   0.25015776  0.37502285  0.54979767
   0.12504923  0.37501678  0.64769713
   0.25009775  0.25008529  0.64761566
   0.37500000  0.00000000  0.35128218
   0.00000000  0.12500000  0.35128218
   0.37500000  0.12500000  0.45042739
   0.00000000  0.00000000  0.45042739
   0.37502574  0.00003333  0.54979122
   0.00001024  0.12500127  0.54980309
   0.37507635  0.12509761  0.64759339
   0.00001357  0.00002598  0.64771731
   0.37500000  0.25000000  0.35128218
   0.00000000  0.37500000  0.35128218
   0.37500000  0.37500000  0.45042739
   0.00000000  0.25000000  0.45042739
   0.37511951  0.25014566  0.54980247
   0.00000628  0.37500458  0.54980657
   0.37559931  0.37511745  0.64794927
   0.00001057  0.25001926  0.64769962
   0.12500000  0.50000000  0.35128218
   0.25000000  0.62500000  0.35128218
   0.12500000  0.62500000  0.45042739
   0.25000000  0.50000000  0.45042739
   0.12500362  0.49999564  0.54976122
   0.25000278  0.62499412  0.54974314
   0.12500970  0.62501512  0.64767320
   0.25005738  0.49999908  0.64747859
   0.12500000  0.75000000  0.35128218
   0.25000000  0.87500000  0.35128218
   0.12500000  0.87500000  0.45042739
   0.25000000  0.75000000  0.45042739
   0.12500175  0.75001573  0.54978647
   0.25000988  0.87502076  0.54979338
   0.12501905  0.87502273  0.64770968
   0.25000333  0.75000402  0.64767798
   0.37500000  0.50000000  0.35128218
   0.00000000  0.62500000  0.35128218
   0.37500000  0.62500000  0.45042739
   0.00000000  0.50000000  0.45042739
   0.37517927  0.49990199  0.54982656
   0.00001019  0.62500533  0.54978068
   0.37500278  0.62493842  0.64744913
   0.00001003  0.50000427  0.64767719
   0.37500000  0.75000000  0.35128218
   0.00000000  0.87500000  0.35128218
   0.37500000  0.87500000  0.45042739
   0.00000000  0.75000000  0.45042739
   0.37502275  0.75000187  0.54976508
   0.00001434  0.87502794  0.54979954
   0.37501310  0.87500457  0.64769941
   0.00001511  0.75002349  0.64769196
   0.62500000  0.00000000  0.35128218
   0.75000000  0.12500000  0.35128218
   0.62500000  0.12500000  0.45042739
   0.75000000  0.00000000  0.45042739
   0.62498223  0.00002134  0.54977229
   0.74998974  0.12501463  0.54976292
   0.62496236  0.12507484  0.64752128
   0.74999707  0.00002200  0.64768416
   0.62500000  0.25000000  0.35128218
   0.75000000  0.37500000  0.35128218
   0.62500000  0.37500000  0.45042739
   0.75000000  0.25000000  0.45042739
   0.62490720  0.25017651  0.54981984
   0.74980613  0.37502016  0.54982490
   0.62439171  0.37511135  0.64836291
   0.74991732  0.25004992  0.64754600
   0.87500000  0.00000000  0.35128218
   0.50000000  0.12500000  0.35128218
   0.87500000  0.12500000  0.45042739
   0.50000000  0.00000000  0.45042739
   0.87501592  0.00001377  0.54979610
   0.50000741  0.12515042  0.54978382
   0.87499132  0.12502153  0.64769309
   0.50000769  0.00005296  0.64769450
   0.87500000  0.25000000  0.35128218
   0.50000000  0.37500000  0.35128218
   0.87500000  0.37500000  0.45042739
   0.50000000  0.25000000  0.45042739
   0.87499534  0.25001981  0.54978102
   0.50006646  0.37512821  0.54969323
   0.87497632  0.37501374  0.64769187
   0.50005847  0.25059894  0.64779165
   0.62500000  0.50000000  0.35128218
   0.75000000  0.62500000  0.35128218
   0.62500000  0.62500000  0.45042739
   0.75000000  0.50000000  0.45042739
   0.62485146  0.49987341  0.54983187
   0.75001585  0.62500738  0.54971911
   0.62501082  0.62500374  0.64732393
   0.74998664  0.50002399  0.64737268
   0.62500000  0.75000000  0.35128218
   0.75000000  0.87500000  0.35128218
   0.62500000  0.87500000  0.45042739
   0.75000000  0.75000000  0.45042739
   0.62498345  0.75002110  0.54974205
   0.75000751  0.87502091  0.54978762
   0.62499829  0.87500862  0.64768361
   0.75002271  0.75002235  0.64767066
   0.87500000  0.50000000  0.35128218
   0.50000000  0.62500000  0.35128218
   0.87500000  0.62500000  0.45042739
   0.50000000  0.50000000  0.45042739
   0.87502416  0.49999100  0.54974162
   0.50000141  0.62477862  0.54981762
   0.87502081  0.62502782  0.64766094
   0.50004403  0.49941589  0.64848457
   0.87500000  0.75000000  0.35128218
   0.50000000  0.87500000  0.35128218
   0.87500000  0.87500000  0.45042739
   0.50000000  0.75000000  0.45042739
   0.87501889  0.75002105  0.54978154
   0.49999596  0.87501304  0.54980890
   0.87501389  0.87502413  0.64770351
   0.50000261  0.74996297  0.64768183
   0.12500000  0.00000000  0.45042739
   0.25000000  0.12500000  0.45042739
   0.12500000  0.12500000  0.35128218
   0.25000000  0.00000000  0.35128218
   0.12502091  0.00001815  0.65009424
   0.25001691  0.12499865  0.65015134
   0.12500173  0.12500625  0.54944566
   0.25000340  0.00000913  0.54942099
   0.12500000  0.25000000  0.45042739
   0.25000000  0.37500000  0.45042739
   0.12500000  0.37500000  0.35128218
   0.25000000  0.25000000  0.35128218
   0.12501150  0.25001896  0.65013344
   0.25006997  0.37504032  0.65035156
   0.12503302  0.37500323  0.54946027
   0.24997502  0.24998716  0.54946150
   0.37500000  0.00000000  0.45042739
   0.00000000  0.12500000  0.45042739
   0.37500000  0.12500000  0.35128218
   0.00000000  0.00000000  0.35128218
   0.37501512  0.00002361  0.65010523
   0.00001025  0.12502850  0.65009952
   0.37497659  0.12497971  0.54943899
   0.00001138  0.00001337  0.54949106
   0.37500000  0.25000000  0.45042739
   0.00000000  0.37500000  0.45042739
   0.37500000  0.37500000  0.35128218
   0.00000000  0.25000000  0.35128218
   0.37495810  0.24994188  0.65020847
   0.00000667  0.37500195  0.65010266
   0.37471760  0.37499077  0.54929347
   0.00001764  0.25001466  0.54942323
   0.12500000  0.50000000  0.45042739
   0.25000000  0.62500000  0.45042739
   0.12500000  0.62500000  0.35128218
   0.25000000  0.50000000  0.35128218
   0.12501238  0.50001568  0.65008196
   0.24994670  0.62506151  0.65010759
   0.12498131  0.62502578  0.54941785
   0.24991626  0.50004998  0.54937076
   0.12500000  0.75000000  0.45042739
   0.25000000  0.87500000  0.45042739
   0.12500000  0.87500000  0.35128218
   0.25000000  0.75000000  0.35128218
   0.12497914  0.75003351  0.65008755
   0.25001560  0.87502973  0.65010561
   0.12500356  0.87502530  0.54943545
   0.24998923  0.75003094  0.54944101
   0.37500000  0.50000000  0.45042739
   0.00000000  0.62500000  0.45042739
   0.37500000  0.62500000  0.35128218
   0.00000000  0.50000000  0.35128218
   0.37471497  0.50021723  0.64991801
   0.00000812  0.62501980  0.65006951
   0.37496882  0.62509775  0.54939186
   0.00000934  0.49999022  0.54947077
   0.37500000  0.75000000  0.45042739
   0.00000000  0.87500000  0.45042739
   0.37500000  0.87500000  0.35128218
   0.00000000  0.75000000  0.35128218
   0.37501040  0.74999741  0.65011620
   0.00001440  0.87501857  0.65008630
   0.37501549  0.87501513  0.54943661
   0.00001213  0.75002238  0.54941070
   0.62500000  0.00000000  0.45042739
   0.75000000  0.12500000  0.45042739
   0.62500000  0.12500000  0.35128218
   0.75000000  0.00000000  0.35128218
   0.62500359  0.00001614  0.65009286
   0.75002526  0.12497073  0.65013565
   0.62503444  0.12494652  0.54939711
   0.75001246  0.99999077  0.54941349
   0.62500000  0.25000000  0.45042739
   0.75000000  0.37500000  0.45042739
   0.62500000  0.37500000  0.35128218
   0.75000000  0.25000000  0.35128218
   0.62512559  0.24982937  0.65006626
   0.74997803  0.37504964  0.65046354
   0.62531213  0.37498501  0.54935294
   0.75006743  0.24998376  0.54944388
   0.87500000  0.00000000  0.45042739
   0.50000000  0.12500000  0.45042739
   0.87500000  0.12500000  0.35128218
   0.50000000  0.00000000  0.35128218
   0.87500597  0.00000910  0.65008902
   0.50002130  0.12511451  0.65027802
   0.87502227  0.12499688  0.54943242
   0.49999981  0.00002797  0.54950168
   0.87500000  0.25000000  0.45042739
   0.50000000  0.37500000  0.45042739
   0.87500000  0.37500000  0.35128218
   0.50000000  0.25000000  0.35128218
   0.87501035  0.25001112  0.65012687
   0.49998167  0.37498730  0.64777824
   0.87497801  0.37499699  0.54946771
   0.49999430  0.24973319  0.54925332
   0.62500000  0.50000000  0.45042739
   0.75000000  0.62500000  0.45042739
   0.62500000  0.62500000  0.35128218
   0.75000000  0.50000000  0.35128218
   0.62540157  0.50037684  0.64966321
   0.75007924  0.62508448  0.65012943
   0.62504534  0.62514325  0.54934060
   0.75014567  0.50005598  0.54933566
   0.62500000  0.75000000  0.45042739
   0.75000000  0.87500000  0.45042739
   0.62500000  0.87500000  0.35128218
   0.75000000  0.75000000  0.35128218
   0.62500759  0.75000834  0.65007656
   0.75000620  0.87503089  0.65009997
   0.62498679  0.87501916  0.54942523
   0.75002982  0.75003784  0.54943628
   0.87500000  0.50000000  0.45042739
   0.50000000  0.62500000  0.45042739
   0.87500000  0.62500000  0.35128218
[...]
      2.11682     12.70098     11.73814        -0.000218      0.000431     -0.021745
      4.23374     14.81785     11.73828        -0.000229     -0.000364     -0.022253
      2.11711     14.81788     13.82883        -0.001322      0.000291     -0.130635
      4.23363     12.70078     13.82816         0.000350     -0.000360     -0.129612
      6.35036      8.46714      7.50000         0.002987     -0.002053      0.631100
      0.00000     10.58393      7.50000        -0.000121     -0.001190      0.626889
      6.35036     10.58393      9.61679         0.007445     -0.007758      0.014906
      0.00000      8.46714      9.61679         0.000448     -0.000587      0.009499
      6.35339      8.46548     11.73899        -0.000428     -0.000140     -0.015517
      0.00017     10.58402     11.73801         0.000003      0.002068     -0.021174
      6.35040     10.58289     13.82327         0.004666     -0.007458     -0.126639
      0.00017      8.46721     13.82814        -0.000515      0.000636     -0.128935
      6.35036     12.70071      7.50000         0.001359     -0.002877      0.627200
      0.00000     14.81750      7.50000        -0.000035     -0.000164      0.627013
      6.35036     14.81750      9.61679         0.000807      0.000105      0.011858
      0.00000     12.70071      9.61679         0.000357      0.000153      0.011729
      6.35074     12.70075     11.73768         0.001043     -0.000924     -0.022197
      0.00024     14.81797     11.73842        -0.000339     -0.002050     -0.021126
      6.35058     14.81758     13.82861         0.000375      0.000566     -0.130626
      0.00026     12.70111     13.82845        -0.000159      0.000685     -0.130885
     10.58393      0.00000      7.50000        -0.001237      0.002168      0.627181
     12.70071      2.11679      7.50000        -0.002531      0.003162      0.626987
     10.58393      2.11679      9.61679        -0.005071      0.009433      0.015443
     12.70071      0.00000      9.61679        -0.001014      0.001273      0.011113
     10.58363      0.00036     11.73783         0.001049      0.000315     -0.021404
     12.70054      2.11703     11.73763        -0.000858      0.001220     -0.020851
     10.58329      2.11805     13.82481        -0.002280      0.005527     -0.126537
     12.70066      0.00037     13.82829        -0.000284      0.000936     -0.129914
     10.58393      4.23357      7.50000        -0.001732      0.002992      0.630871
     12.70071      6.35036      7.50000        -0.003931     -0.000002      0.631125
     10.58393      6.35036      9.61679         0.005790      0.000743      0.022703
     12.70071      4.23357      9.61679        -0.007934      0.007830      0.015800
     10.58236      4.23656     11.73885        -0.000551      0.002410     -0.017464
     12.69743      6.35070     11.73896        -0.002776     -0.000057     -0.019932
     10.57363      6.35224     13.84278        -0.009607      0.001947     -0.126814
     12.69931      4.23442     13.82534        -0.006084      0.003248     -0.123473
     14.81750      0.00000      7.50000        -0.000880      0.000791      0.626986
      8.46714      2.11679      7.50000         0.000250      0.003720      0.630453
     14.81750      2.11679      9.61679        -0.000868      0.001702      0.012316
      8.46714      0.00000      9.61679         0.000098      0.007446      0.013541
     14.81777      0.00023     11.73834        -0.001674     -0.000387     -0.021165
      8.46727      2.11933     11.73808         0.000395      0.002546     -0.020338
     14.81735      2.11715     13.82848        -0.000333      0.000285     -0.129135
      8.46727      0.00090     13.82851         0.000109      0.001805     -0.128481
     14.81750      4.23357      7.50000        -0.003032      0.001627      0.627019
      8.46714      6.35036      7.50000         0.000473      0.000773      0.629406
     14.81750      6.35036      9.61679        -0.010685     -0.000301      0.015460
      8.46714      4.23357      9.61679         0.000975     -0.001453      0.018673
     14.81742      4.23391     11.73802        -0.001074      0.001231     -0.021673
      8.46827      6.35253     11.73615         0.000584     -0.001538     -0.004455
     14.81710      6.35059     13.82845        -0.002848      0.000505     -0.129034
      8.46813      4.24371     13.83058        -0.000556      0.008819     -0.120307
     10.58393      8.46714      7.50000        -0.002477     -0.002269      0.631130
     12.70071     10.58393      7.50000        -0.002952     -0.002534      0.627073
     10.58393     10.58393      9.61679        -0.007240     -0.007710      0.014838
     12.70071      8.46714      9.61679        -0.008176     -0.006997      0.014533
     10.58141      8.46500     11.73911         0.000716     -0.000944     -0.012759
     12.70098     10.58405     11.73670        -0.000642     -0.000403     -0.021969
     10.58411     10.58399     13.82060        -0.004926     -0.009617     -0.126499
     12.70049      8.46755     13.82164        -0.008992     -0.003535     -0.121708
     10.58393     12.70071      7.50000        -0.001115     -0.002916      0.627258
     12.70071     14.81750      7.50000        -0.001143     -0.000716      0.626818
     10.58393     14.81750      9.61679        -0.000661      0.000365      0.010600
     12.70071     12.70071      9.61679        -0.001096     -0.000506      0.011041
     10.58365     12.70107     11.73719        -0.001046     -0.000839     -0.022710
     12.70084     14.81785     11.73816         0.000226     -0.000349     -0.022483
     10.58390     14.81765     13.82828        -0.000416      0.000319     -0.130647
     12.70110     12.70109     13.82800        -0.000358     -0.000729     -0.130165
     14.81750      8.46714      7.50000        -0.002753     -0.001377      0.627264
      8.46714     10.58393      7.50000         0.000237     -0.004002      0.631334
     14.81750     10.58393      9.61679        -0.000657     -0.000728      0.010341
      8.46714      8.46714      9.61679         0.000480      0.006193      0.021741
     14.81791      8.46699     11.73718        -0.003160     -0.000853     -0.020107
      8.46717     10.58018     11.73880         0.000176     -0.000684     -0.019320
     14.81785     10.58440     13.82779        -0.000580     -0.001183     -0.128930
      8.46789      8.45725     13.84538         0.000935     -0.008093     -0.126259
     14.81750     12.70071      7.50000        -0.001414     -0.001121      0.626834
      8.46714     14.81750      7.50000         0.000166     -0.000579      0.626501
     14.81750     14.81750      9.61679        -0.000034      0.000481      0.012749
      8.46714     12.70071      9.61679        -0.000007     -0.010817      0.014744
     14.81782     12.70107     11.73803         0.000511      0.000516     -0.021717
      8.46707     14.81772     11.73862         0.000247     -0.001952     -0.022785
     14.81773     14.81791     13.82870         0.001125      0.000229     -0.130593
      8.46719     12.70009     13.82824         0.000084     -0.002287     -0.129085
      2.11679      0.00000      9.61679         0.000404      0.000120      0.026387
      4.23357      2.11679      9.61679        -0.003336     -0.004115      0.028391
      2.11679      2.11679      7.50000        -0.003809     -0.004037     -0.371597
      4.23357      0.00000      7.50000        -0.001539     -0.001335     -0.373491
      2.11714      0.00031     13.87974         0.000691     -0.000012     -0.146934
      4.23386      2.11676     13.88096        -0.000656     -0.000406     -0.146788
      2.11681      2.11689     11.73086         0.000524     -0.000370      0.005511
      4.23363      0.00015     11.73033        -0.000055      0.000380      0.005180
      2.11679      4.23357      9.61679        -0.004314     -0.001668      0.028926
      4.23357      6.35036      9.61679        -0.015115     -0.000074      0.016548
      2.11679      6.35036      7.50000        -0.006004      0.002140     -0.372555
      4.23357      4.23357      7.50000        -0.003998     -0.002945     -0.377181
      2.11698      4.23389     13.88058        -0.001280      0.000258     -0.146840
      4.23476      6.35104     13.88524        -0.002967      0.000139     -0.143762
      2.11734      6.35041     11.73117        -0.000840     -0.000391      0.006487
      4.23315      4.23335     11.73120        -0.001096     -0.000865      0.006693
      6.35036      0.00000      9.61679        -0.002396     -0.002874      0.026213
      0.00000      2.11679      9.61679         0.000812      0.000226      0.026832
      6.35036      2.11679      7.50000        -0.000210     -0.006502     -0.373332
      0.00000      0.00000      7.50000         0.000157     -0.000649     -0.373354
      6.35061      0.00040     13.87998        -0.000472     -0.000989     -0.146809
      0.00017      2.11727     13.87986        -0.000141      0.000318     -0.147430
      6.34996      2.11644     11.73072        -0.000570     -0.000973      0.006489
      0.00019      0.00023     11.73183        -0.000093      0.000023      0.003460
      6.35036      4.23357      9.61679        -0.006441     -0.007593      0.017831
      0.00000      6.35036      9.61679         0.000220     -0.001274      0.028974
      6.35036      6.35036      7.50000         0.000208      0.001722     -0.375073
      0.00000      4.23357      7.50000         0.000286     -0.001165     -0.373408
      6.34965      4.23259     13.88218        -0.001685     -0.001886     -0.145361
      0.00011      6.35039     13.87992         0.000137      0.000497     -0.145723
      6.34557      6.35020     11.72761        -0.000177     -0.000294      0.004075
      0.00030      4.23382     11.73038        -0.000120     -0.001129      0.006260
      2.11679      8.46714      9.61679        -0.004926      0.001430      0.023260
      4.23357     10.58393      9.61679        -0.004815      0.004201      0.025254
      2.11679     10.58393      7.50000        -0.004006     -0.000791     -0.371510
      4.23357      8.46714      7.50000        -0.004396      0.002424     -0.375461
      2.11700      8.46741     13.87948        -0.000239     -0.000226     -0.145912
      4.23267     10.58497     13.88003         0.000117     -0.000202     -0.146687
      2.11647     10.58436     11.73027         0.000055     -0.000139      0.005329
      4.23215      8.46799     11.72926        -0.001066     -0.000009      0.006205
      2.11679     12.70071      9.61679        -0.001990      0.001967      0.027709
      4.23357     14.81750      9.61679        -0.000571      0.002475      0.028820
      2.11679     14.81750      7.50000        -0.003088      0.002639     -0.371563
      4.23357     12.70071      7.50000        -0.001794      0.001827     -0.375295
      2.11643     12.70128     13.87960        -0.000214     -0.000064     -0.146514
      4.23384     14.81800     13.87999        -0.000065      0.000548     -0.146530
      2.11685     14.81793     11.73064         0.000198     -0.000126      0.004415
      4.23339     12.70124     11.73076         0.000337     -0.000328      0.005698
      6.35036      8.46714      9.61679        -0.007829      0.006693      0.015283
      0.00000     10.58393      9.61679         0.000592      0.002073      0.025119
      6.35036     10.58393      7.50000        -0.000864      0.001840     -0.373644
      0.00000      8.46714      7.50000         0.000334      0.000864     -0.373379
      6.34553      8.47082     13.87598        -0.005210      0.003322     -0.147036
      0.00014     10.58426     13.87922         0.000265      0.000268     -0.145757
      6.34983     10.58558     11.72971        -0.000303      0.001218      0.007528
      0.00016      8.46698     11.73140        -0.000128      0.001344      0.005929
      6.35036     12.70071      9.61679        -0.000712      0.006817      0.026292
      0.00000     14.81750      9.61679         0.000709      0.000123      0.025666
      6.35036     14.81750      7.50000         0.001301      0.002929     -0.371550
      0.00000     12.70071      7.50000         0.000144      0.000872     -0.373400
      6.35053     12.70067     13.88021         0.000304      0.000534     -0.146374
      0.00024     14.81781     13.87957        -0.000148     -0.000381     -0.146645
      6.35062     14.81776     11.73067        -0.000195      0.000862      0.005534
      0.00021     12.70109     11.73011        -0.000155     -0.000171      0.004453
     10.58393      0.00000      9.61679         0.002531     -0.004416      0.024250
     12.70071      2.11679      9.61679         0.004962     -0.004952      0.027131
     10.58393      2.11679      7.50000         0.000057     -0.006709     -0.373393
     12.70071      0.00000      7.50000         0.001677     -0.001415     -0.373397
     10.58399      0.00027     13.87971         0.000351     -0.000782     -0.146567
     12.70114      2.11629     13.88063         0.000322     -0.000894     -0.147606
     10.58451      2.11588     11.72982         0.000534     -0.001344      0.006901
     12.70092     16.93413     11.73017         0.000348      0.000877      0.005327
     10.58393      4.23357      9.61679         0.006285     -0.006781      0.018040
     12.70071      6.35036      9.61679         0.014950     -0.000350      0.016474
     10.58393      6.35036      7.50000        -0.000644      0.001798     -0.375310
     12.70071      4.23357      7.50000         0.004276     -0.003349     -0.377278
     10.58606      4.23068     13.87915         0.002679     -0.003750     -0.146072
     12.70034      6.35120     13.88763         0.004287     -0.000491     -0.144228
     10.58921      6.35010     11.72888        -0.000173     -0.000680      0.001977
     12.70186      4.23330     11.73082         0.000941     -0.000685      0.007394
     14.81750      0.00000      9.61679         0.000505     -0.000158      0.025814
      8.46714      2.11679      9.61679        -0.001090     -0.014192      0.014045
     14.81750      2.11679      7.50000         0.004158     -0.004145     -0.371544
      8.46714      0.00000      7.50000        -0.000125     -0.003286     -0.374313
     14.81760      0.00015     13.87963        -0.000229     -0.000057     -0.146879
      8.46750      2.11872     13.88367         0.000059     -0.002638     -0.144124
     14.81788      2.11673     11.73058        -0.000519     -0.000591      0.005688
      8.46714      0.00047     11.73206        -0.000215     -0.000278      0.006241
     14.81750      4.23357      9.61679         0.006613     -0.001875      0.028071
      8.46714      6.35036      9.61679         0.001231      0.000594      0.014202
     14.81750      6.35036      7.50000         0.006611      0.002113     -0.372588
      8.46714      4.23357      7.50000        -0.000350     -0.002526     -0.376849
     14.81767      4.23376     13.88044         0.001050     -0.000203     -0.146934
      8.46683      6.35014     13.83030        -0.001632     -0.001455     -0.166006
     14.81713      6.35031     11.73133         0.000909     -0.000119      0.006397
      8.46705      4.22905     11.72675         0.000173     -0.000052      0.004262
     10.58393      8.46714      9.61679         0.007416      0.005688      0.015586
     12.70071     10.58393      9.61679         0.006572      0.005286      0.023495
     10.58393     10.58393      7.50000         0.000674      0.001994     -0.373625
     12.70071      8.46714      7.50000         0.004578      0.002790     -0.375524
     10.59073      8.47352     13.87054         0.007433      0.005523     -0.153669
     12.70206     10.58536     13.88050        -0.000052     -0.000003     -0.146627
     10.58470     10.58635     11.72862         0.000238      0.001335      0.007210
     12.70318      8.46809     11.72851         0.001207      0.000210      0.006324
     10.58393     12.70071      9.61679         0.000879      0.009100      0.024082
     12.70071     14.81750      9.61679         0.001256      0.002167      0.028464
     10.58393     14.81750      7.50000        -0.001356      0.002942     -0.371626
     12.70071     12.70071      7.50000         0.001929      0.001926     -0.375178
     10.58406     12.70086     13.87937         0.000567      0.000798     -0.146871
     12.70082     14.81802     13.87987        -0.000640     -0.000100     -0.147385
     10.58370     14.81782     11.73042         0.000645      0.000482      0.006409
     12.70122     12.70135     11.73066        -0.000095     -0.000382      0.005846
     14.81750      8.46714      9.61679         0.007902      0.001482      0.021476
      8.46714     10.58393      9.61679        -0.001189      0.015720      0.012725
     14.81750     10.58393      7.50000         0.004375     -0.000654     -0.371432
      8.46714      8.46714      7.50000        -0.000268      0.001502     -0.377218
     14.81759      8.46757     13.87928         0.000430      0.000035     -0.146228
      8.46734     10.58394     13.88685        -0.000678      0.003956     -0.143735
     14.81816     10.58445     11.73011        -0.000474      0.000200      0.006138
      8.46696      8.47245     11.72976        -0.000498     -0.000484      0.000850
     14.81750     12.70071      9.61679         0.002930      0.002157      0.027463
      8.46714     14.81750      9.61679        -0.000221     -0.000508      0.028537
     14.81750     14.81750      7.50000         0.003316      0.002626     -0.371509
      8.46714     12.70071      7.50000        -0.000105      0.004236     -0.374609
     14.81825     12.70144     13.87950         0.000309     -0.000440     -0.146922
      8.46723     14.81743     13.87999         0.000264     -0.000011     -0.146295
     14.81792     14.81798     11.73051        -0.000158      0.000008      0.004803
      8.46711     12.70040     11.73085        -0.000411      0.000296      0.007738
 -----------------------------------------------------------------------------------
    total drift:                               -0.009369      0.008742     -0.021233


--------------------------------------------------------------------------------------------------------



  FREE ENERGIE OF THE ION-ELECTRON SYSTEM (eV)
  ---------------------------------------------------
  free  energy   TOTEN  =     -1976.46635763 eV

  energy  without entropy=    -1976.46635763  energy(sigma->0) =    -1976.46635763
 


--------------------------------------------------------------------------------------------------------


    POTLOK:  cpu time      0.3131: real time      0.3137


--------------------------------------------------------------------------------------------------------


     LOOP+:  cpu time  24250.9519: real time  24342.7480
    4ORBIT:  cpu time      0.0000: real time      0.0000

 total amount of memory used by VASP MPI-rank0  1588838. kBytes
=======================================================================

   base      :      30000. kBytes
   nonlr-proj:      91125. kBytes
   fftplans  :      72841. kBytes
   grid      :      56764. kBytes
   one-center:       1087. kBytes
   HF        :        135. kBytes
   wavefun   :      32277. kBytes
   fock_wrk  :    1304609. kBytes
 
  
  
 General timing and accounting informations for this job:
 ========================================================
  
                  Total CPU time used (sec):    24262.107
                            User time (sec):    22814.718
                          System time (sec):     1447.390
                         Elapsed time (sec):    24354.645
  
                   Maximum memory used (kb):     3706540.
                   Average memory used (kb):          N/A
  
                          Minor page faults:      3493695
                          Major page faults:          117
                 Voluntary context switches:        10189
