 vasp.6.3.0 20Jan22 (build Apr  1 2022 16:44:48) complex                         
 executed on        HPECrayEX_GCC date 2023.02.23  07:17:18
 running  512 mpi-ranks, with    1 threads/rank
 distrk:  each k-point on  512 cores,    1 groups
 distr:  one band on NCORE=   8 cores,   64 groups


--------------------------------------------------------------------------------------------------------


 INCAR:
   SYSTEM = MgO-rocksalt
   ISMEAR = 0
   SIGMA = 0.05
   EDIFF = 1E-6
   ALGO = ALL
   ISTART = 0
   IBRION = -1
   NSW = 0
   ISYM = 0
   DIPOL = 0.5 0.5 0.5
   IDIPOL = 3
   LDIPOL = .TRUE.
   LHFCALC = .TRUE.
   GGA = PE
   IVDW = 13
   VDW_S8 = 1.2007
   VDW_A1 = 0.4009
   VDW_A2 = 5.0293
   ENCUT = 600
   PREC = Accurate
   LASPH = .TRUE.
   LREAL = .FALSE.
   ISPIN = 1
   NELM = 200
   NELMIN = 8
   NCORE = 8
   KPAR = 1
   LWAVE = .FALSE.
   LCHARG = .FALSE.

 POTCAR:    PAW_PBE N 08Apr2002                   
 POTCAR:    PAW_PBE H 15Jun2001                   
 POTCAR:    PAW_PBE Mg_pv 13Apr2007               
 POTCAR:    PAW_PBE O 08Apr2002                   
 POTCAR:    PAW_PBE N 08Apr2002                   
   SHA256 =  e053789ff3a61a86a1b75d8a110fcc91f86041011e7b0817c7c99e4e8a6349d7 N/POTCAR              
   COPYR  = (c) Copyright 08Apr2002 Georg Kresse                                                    
   COPYR  = This file is part of the software VASP. Any use, copying, and all other rights are regul
   COPYR  = If you do not have a valid VASP license, you may not use, copy or distribute this file. 
   VRHFIN =N: s2p3                                                                                  
   LEXCH  = PE                                                                                      
   EATOM  =   264.5486 eV,   19.4438 Ry                                                             
                                                                                                    
   TITEL  = PAW_PBE N 08Apr2002                                                                     
   LULTRA =        F    use ultrasoft PP ?                                                          
   IUNSCR =        1    unscreen: 0-lin 1-nonlin 2-no                                               
   RPACOR =    1.200    partial core radius                                                         
   POMASS =   14.001; ZVAL   =    5.000    mass and valenz                                          
   RCORE  =    1.500    outmost cutoff radius                                                       
   RWIGS  =    1.400; RWIGS  =    0.741    wigner-seitz radius (au A)                               
   ENMAX  =  400.000; ENMIN  =  300.000 eV                                                          
   ICORE  =        2    local potential                                                             
   LCOR   =        T    correct aug charges                                                         
   LPAW   =        T    paw PP                                                                      
   EAUG   =  627.112                                                                                
   DEXC   =    0.000                                                                                
   RMAX   =    1.529    core radius for proj-oper                                                   
   RAUG   =    1.300    factor for augmentation sphere                                              
   RDEP   =    1.514    radius for radial grids                                                     
   RDEPT  =    1.338    core radius for aug-charge                                                  
                                                                                                    
   Atomic configuration                                                                             
    4 entries                                                                                       
     n  l   j            E        occ.                                                              
     1  0  0.50      -384.7179   2.0000                                                             
     2  0  0.50       -18.5828   2.0000                                                             
     2  1  0.50        -7.0898   3.0000                                                             
     3  2  1.50        -6.8029   0.0000                                                             
   Description                                                                                      
     l       E           TYP  RCUT    TYP  RCUT                                                     
     0    -18.5828119     23  1.200                                                                 
     0    -13.5018863     23  1.200                                                                 
     1     -7.0897853     23  1.500                                                                 
     1      9.5240782     23  1.500                                                                 
     2     -6.8029130      7  1.500                                                                 
  local pseudopotential read in
  partial core-charges read in
  partial kinetic energy density read in
  atomic valenz-charges read in
  non local Contribution for L=           0  read in
    real space projection operators read in
  non local Contribution for L=           0  read in
    real space projection operators read in
  non local Contribution for L=           1  read in
    real space projection operators read in
  non local Contribution for L=           1  read in
    real space projection operators read in
    PAW grid and wavefunctions read in

   number of l-projection  operators is LMAX  =           4
   number of lm-projection operators is LMMAX =           8

 POTCAR:    PAW_PBE H 15Jun2001                   
   SHA256 =  030f79b5d3ab3cf0e668861823c8fb652ff669f3e15e46930bd03bfd63a607b6 H/POTCAR              
   COPYR  = (c) Copyright 15Jun2001 Georg Kresse                                                    
   COPYR  = This file is part of the software VASP. Any use, copying, and all other rights are regul
   COPYR  = If you do not have a valid VASP license, you may not use, copy or distribute this file. 
   VRHFIN =H: ultrasoft test                                                                        
   LEXCH  = PE                                                                                      
   EATOM  =    12.4884 eV,    0.9179 Ry                                                             
                                                                                                    
   TITEL  = PAW_PBE H 15Jun2001                                                                     
   LULTRA =        F    use ultrasoft PP ?                                                          
   IUNSCR =        0    unscreen: 0-lin 1-nonlin 2-no                                               
   RPACOR =    0.000    partial core radius                                                         
   POMASS =    1.000; ZVAL   =    1.000    mass and valenz                                          
   RCORE  =    1.100    outmost cutoff radius                                                       
   RWIGS  =    0.700; RWIGS  =    0.370    wigner-seitz radius (au A)                               
   ENMAX  =  250.000; ENMIN  =  200.000 eV                                                          
   RCLOC  =    0.701    cutoff for local pot                                                        
   LCOR   =        T    correct aug charges                                                         
   LPAW   =        T    paw PP                                                                      
   EAUG   =  400.000                                                                                
   RMAX   =    1.123    core radius for proj-oper                                                   
   RAUG   =    1.200    factor for augmentation sphere                                              
   RDEP   =    1.112    radius for radial grids                                                     
   RDEPT  =    0.926    core radius for aug-charge                                                  
                                                                                                    
   Atomic configuration                                                                             
    2 entries                                                                                       
     n  l   j            E        occ.                                                              
     1  0  0.50        -6.4927   1.0000                                                             
     2  1  0.50        -3.4015   0.0000                                                             
   Description                                                                                      
     l       E           TYP  RCUT    TYP  RCUT                                                     
     0     -6.4927494     23  1.100                                                                 
     0      6.8029130     23  1.100                                                                 
     1     -4.0817478     23  1.100                                                                 
  local pseudopotential read in
  atomic valenz-charges read in
  non local Contribution for L=           0  read in
    real space projection operators read in
  non local Contribution for L=           0  read in
    real space projection operators read in
  non local Contribution for L=           1  read in
    real space projection operators read in
    PAW grid and wavefunctions read in

   number of l-projection  operators is LMAX  =           3
   number of lm-projection operators is LMMAX =           5

 POTCAR:    PAW_PBE Mg_pv 13Apr2007               
   SHA256 =  f474ac0dd33840b9ae76c01d57fea79fdf77cdfbb07d5ade72c65f83c709b62b Mg_pv/POTCAR          
   COPYR  = (c) Copyright 13Apr2007 Georg Kresse                                                    
   COPYR  = This file is part of the software VASP. Any use, copying, and all other rights are regul
   COPYR  = If you do not have a valid VASP license, you may not use, copy or distribute this file. 
   VRHFIN =Mg: p6s2                                                                                 
   LEXCH  = PE                                                                                      
   EATOM  =  1056.7344 eV,   77.6678 Ry                                                             
                                                                                                    
   TITEL  = PAW_PBE Mg_pv 13Apr2007                                                                 
   LULTRA =        F    use ultrasoft PP ?                                                          
   IUNSCR =        1    unscreen: 0-lin 1-nonlin 2-no                                               
   RPACOR =    1.500    partial core radius                                                         
   POMASS =   24.305; ZVAL   =    8.000    mass and valenz                                          
   RCORE  =    2.000    outmost cutoff radius                                                       
   RWIGS  =    2.000; RWIGS  =    1.058    wigner-seitz radius (au A)                               
   ENMAX  =  403.929; ENMIN  =  302.947 eV                                                          
   RCLOC  =    1.506    cutoff for local pot                                                        
   LCOR   =        T    correct aug charges                                                         
   LPAW   =        T    paw PP                                                                      
   EAUG   =  758.780                                                                                
   DEXC   =    0.000                                                                                
   RMAX   =    2.045    core radius for proj-oper                                                   
   RAUG   =    1.300    factor for augmentation sphere                                              
   RDEP   =    2.025    radius for radial grids                                                     
   RDEPT  =    1.557    core radius for aug-charge                                                  
                                                                                                    
   Atomic configuration                                                                             
    5 entries                                                                                       
     n  l   j            E        occ.                                                              
     1  0  0.50     -1259.6230   2.0000                                                             
     2  0  0.50       -79.8442   2.0000                                                             
     2  1  1.50       -46.6121   6.0000                                                             
     3  0  0.50        -4.7055   2.0000                                                             
     3  2  1.50        -1.3606   0.0000                                                             
   Description                                                                                      
     l       E           TYP  RCUT    TYP  RCUT                                                     
     1    -46.6121073     23  1.600                                                                 
     1      2.7211652     23  1.600                                                                 
     0     -4.7054661     23  2.000                                                                 
     0     61.2262170     23  2.000                                                                 
     2     -1.3605826     23  2.000                                                                 
  local pseudopotential read in
  partial core-charges read in
  partial kinetic energy density read in
  atomic valenz-charges read in
  non local Contribution for L=           1  read in
    real space projection operators read in
  non local Contribution for L=           1  read in
    real space projection operators read in
  non local Contribution for L=           0  read in
    real space projection operators read in
  non local Contribution for L=           0  read in
    real space projection operators read in
  non local Contribution for L=           2  read in
    real space projection operators read in
    PAW grid and wavefunctions read in

   number of l-projection  operators is LMAX  =           5
   number of lm-projection operators is LMMAX =          13

 POTCAR:    PAW_PBE O 08Apr2002                   
   SHA256 =  818f92134a0a090dccd8ba1447fa70422a3b330e708bb4f08108d8ae51209ddf O/POTCAR              
   COPYR  = (c) Copyright 08Apr2002 Georg Kresse                                                    
   COPYR  = This file is part of the software VASP. Any use, copying, and all other rights are regul
   COPYR  = If you do not have a valid VASP license, you may not use, copy or distribute this file. 
   VRHFIN =O: s2p4                                                                                  
   LEXCH  = PE                                                                                      
   EATOM  =   432.3788 eV,   31.7789 Ry                                                             
                                                                                                    
   TITEL  = PAW_PBE O 08Apr2002                                                                     
   LULTRA =        F    use ultrasoft PP ?                                                          
   IUNSCR =        1    unscreen: 0-lin 1-nonlin 2-no                                               
   RPACOR =    1.200    partial core radius                                                         
   POMASS =   16.000; ZVAL   =    6.000    mass and valenz                                          
   RCORE  =    1.520    outmost cutoff radius                                                       
   RWIGS  =    1.550; RWIGS  =    0.820    wigner-seitz radius (au A)                               
   ENMAX  =  400.000; ENMIN  =  300.000 eV                                                          
   ICORE  =        2    local potential                                                             
   LCOR   =        T    correct aug charges                                                         
   LPAW   =        T    paw PP                                                                      
   EAUG   =  605.392                                                                                
   DEXC   =    0.000                                                                                
   RMAX   =    1.553    core radius for proj-oper                                                   
   RAUG   =    1.300    factor for augmentation sphere                                              
   RDEP   =    1.550    radius for radial grids                                                     
   RDEPT  =    1.329    core radius for aug-charge                                                  
                                                                                                    
   Atomic configuration                                                                             
    4 entries                                                                                       
     n  l   j            E        occ.                                                              
     1  0  0.50      -514.6923   2.0000                                                             
     2  0  0.50       -23.9615   2.0000                                                             
     2  1  0.50        -9.0305   4.0000                                                             
     3  2  1.50        -9.5241   0.0000                                                             
   Description                                                                                      
     l       E           TYP  RCUT    TYP  RCUT                                                     
     0    -23.9615318     23  1.200                                                                 
     0     -9.5240782     23  1.200                                                                 
     1     -9.0304911     23  1.520                                                                 
     1      8.1634956     23  1.520                                                                 
     2     -9.5240782      7  1.500                                                                 
  local pseudopotential read in
  partial core-charges read in
  partial kinetic energy density read in
  kinetic energy density of atom read in
  atomic valenz-charges read in
  non local Contribution for L=           0  read in
    real space projection operators read in
  non local Contribution for L=           0  read in
    real space projection operators read in
  non local Contribution for L=           1  read in
    real space projection operators read in
  non local Contribution for L=           1  read in
    real space projection operators read in
    PAW grid and wavefunctions read in

   number of l-projection  operators is LMAX  =           4
   number of lm-projection operators is LMMAX =           8

 -----------------------------------------------------------------------------
|                                                                             |
|               ----> ADVICE to this user running VASP <----                  |
|                                                                             |
|     You have a (more or less) 'large supercell' and for larger cells it     |
|     might be more efficient to use real-space projection operators.         |
|     Therefore, try LREAL= Auto in the INCAR file.                           |
|     Mind: For very accurate calculation, you might also keep the            |
|     reciprocal projection scheme (i.e. LREAL=.FALSE.).                      |
|                                                                             |
 -----------------------------------------------------------------------------

  PAW_PBE N 08Apr2002                   :
 energy of atom  1       EATOM= -264.5486
 kinetic energy error for atom=    0.0103 (will be added to EATOM!!)
  PAW_PBE H 15Jun2001                   :
 energy of atom  2       EATOM=  -12.4884
 kinetic energy error for atom=    0.0004 (will be added to EATOM!!)
  PAW_PBE Mg_pv 13Apr2007               :
 energy of atom  3       EATOM=-1056.7344
 kinetic energy error for atom=    0.0221 (will be added to EATOM!!)
  PAW_PBE O 08Apr2002                   :
 energy of atom  4       EATOM= -432.3788
 kinetic energy error for atom=    0.0168 (will be added to EATOM!!)


 POSCAR:  N  H Mg  O
  positions in direct lattice
  No initial velocities read in
 -----------------------------------------------------------------------------
|                                                                             |
|           W    W    AA    RRRRR   N    N  II  N    N   GGGG   !!!           |
|           W    W   A  A   R    R  NN   N  II  NN   N  G    G  !!!           |
|           W    W  A    A  R    R  N N  N  II  N N  N  G       !!!           |
|           W WW W  AAAAAA  RRRRR   N  N N  II  N  N N  G  GGG   !            |
|           WW  WW  A    A  R   R   N   NN  II  N   NN  G    G                |
|           W    W  A    A  R    R  N    N  II  N    N   GGGG   !!!           |
|                                                                             |
|     Specifying the vdW parameters                                           |
|     VDW_S8 = 1.201                                                          |
|     VDW_A1 = 0.401                                                          |
|     VDW_A2 = 5.029                                                          |
|     in the INCAR file will overwrite the defaults for pbe0. Please make     |
|     sure that is what you intended.                                         |
|                                                                             |
 -----------------------------------------------------------------------------

 exchange correlation table for  LEXCH =        8
   RHO(1)=    0.500       N(1)  =     2000
   RHO(2)=  100.500       N(2)  =     4000



--------------------------------------------------------------------------------------------------------


 ion  position               nearest neighbor table
   1  0.500  0.502  0.760-   3 1.01   4 1.01   2 1.01
   2  0.500  0.618  0.774-   1 1.01
   3  0.402  0.448  0.778-   1 1.01
   4  0.598  0.448  0.778-   1 1.01
   5  0.250  0.000  0.352-  39 2.10  40 2.10  47 2.10  56 2.10  37 2.10
   6  0.500  0.250  0.352-  39 2.10  40 2.10  48 2.10  55 2.10  38 2.10
   7  0.250  0.250  0.451-  37 2.10  38 2.10  45 2.10  54 2.10  39 2.10  43 2.10
   8  0.500  0.000  0.451-  37 2.10  38 2.10  46 2.10  53 2.10  40 2.10  44 2.10
   9  0.250  1.000  0.549-  44 2.10  51 2.10  43 2.10  60 2.10  37 2.10  41 2.14
  10  0.500  0.251  0.550-  52 2.09  59 2.10  43 2.10  44 2.12  38 2.12  42 2.12
  11  0.250  0.249  0.647-  43 2.07  41 2.10  58 2.10  42 2.10  49 2.10
  12  0.500  1.000  0.647-  42 2.08  44 2.08  50 2.08  57 2.11  41 2.11
  13  0.250  0.500  0.352-  39 2.10  47 2.10  48 2.10  64 2.10  45 2.10
  14  0.500  0.750  0.352-  40 2.10  47 2.10  48 2.10  63 2.10  46 2.10
  15  0.250  0.750  0.451-  37 2.10  45 2.10  46 2.10  62 2.10  47 2.10  51 2.11
  16  0.500  0.500  0.451-  38 2.10  45 2.10  46 2.10  61 2.10  48 2.10  52 2.12
  17  0.252  0.500  0.550-  52 2.09  51 2.10  43 2.10  68 2.11  45 2.12  49 2.13
  18  0.500  0.748  0.550-  52 2.09  67 2.10  51 2.10  44 2.11  46 2.12  50 2.13
  19  0.250  0.750  0.647-  51 2.07  66 2.10  41 2.10  49 2.10  50 2.11
  20  0.500  0.499  0.655-  42 2.12  65 2.13  49 2.13  50 2.13  52 2.23
  21  0.750  0.000  0.352-  40 2.10  55 2.10  56 2.10  63 2.10  53 2.10
  22  0.000  0.250  0.352-  39 2.10  55 2.10  56 2.10  64 2.10  54 2.10
  23  0.750  0.250  0.451-  38 2.10  53 2.10  54 2.10  61 2.10  55 2.10  59 2.10
  24  0.000  0.000  0.451-  37 2.10  53 2.10  54 2.10  62 2.10  56 2.10  60 2.10
  25  0.750  1.000  0.549-  44 2.10  67 2.10  59 2.10  60 2.10  53 2.10  57 2.14
  26  1.000  0.250  0.549-  68 2.10  59 2.10  43 2.10  54 2.10  60 2.10  58 2.14
  27  0.750  0.249  0.647-  59 2.07  57 2.10  58 2.10  42 2.10  65 2.10
  28  1.000  1.000  0.647-  60 2.08  57 2.10  41 2.10  66 2.10  58 2.10
  29  0.750  0.500  0.352-  48 2.10  55 2.10  63 2.10  64 2.10  61 2.10
  30  0.000  0.750  0.352-  47 2.10  56 2.10  63 2.10  64 2.10  62 2.10
  31  0.750  0.750  0.451-  46 2.10  53 2.10  61 2.10  62 2.10  63 2.10  67 2.11
  32  0.000  0.500  0.451-  45 2.10  54 2.10  61 2.10  62 2.10  64 2.10  68 2.10
  33  0.748  0.500  0.550-  52 2.09  67 2.10  59 2.10  68 2.11  61 2.12  65 2.13
  34  1.000  0.750  0.549-  68 2.10  67 2.10  51 2.10  60 2.10  62 2.11  66 2.14
  35  0.750  0.750  0.647-  67 2.07  66 2.10  57 2.10  65 2.10  50 2.11
  36  0.000  0.500  0.647-  49 2.08  65 2.08  68 2.08  58 2.11  66 2.11
  37  0.250  0.000  0.451-   7 2.10   8 2.10  15 2.10  24 2.10   5 2.10   9 2.10
  38  0.500  0.250  0.451-   7 2.10   8 2.10  16 2.10  23 2.10   6 2.10  10 2.12
  39  0.250  0.250  0.352-   5 2.10   6 2.10  13 2.10  22 2.10   7 2.10
  40  0.500  0.000  0.352-   5 2.10   6 2.10  14 2.10  21 2.10   8 2.10
  41  0.249  1.000  0.650-  28 2.10  11 2.10  19 2.10  12 2.11   9 2.14
  42  0.500  0.247  0.650-  12 2.08  27 2.10  11 2.10  20 2.12  10 2.12
  43  0.250  0.250  0.549-  11 2.07  26 2.10   9 2.10  17 2.10  10 2.10   7 2.10
  44  0.500  1.000  0.549-  12 2.08  25 2.10   9 2.10   8 2.10  18 2.11  10 2.12
  45  0.250  0.500  0.451-   7 2.10  15 2.10  16 2.10  32 2.10  13 2.10  17 2.12
  46  0.500  0.750  0.451-   8 2.10  15 2.10  16 2.10  31 2.10  14 2.10  18 2.12
  47  0.250  0.750  0.352-   5 2.10  13 2.10  14 2.10  30 2.10  15 2.10
  48  0.500  0.500  0.352-   6 2.10  13 2.10  14 2.10  29 2.10  16 2.10
  49  0.247  0.500  0.650-  36 2.08  11 2.10  19 2.10  20 2.13  17 2.13
  50  0.500  0.753  0.650-  12 2.08  35 2.11  19 2.11  18 2.13  20 2.13
  51  0.250  0.750  0.550-  19 2.07   9 2.10  34 2.10  18 2.10  17 2.10  15 2.11
  52  0.500  0.500  0.550-  18 2.09  17 2.09  33 2.09  10 2.09  16 2.12  20 2.23
  53  0.750  0.000  0.451-   8 2.10  23 2.10  24 2.10  31 2.10  21 2.10  25 2.10
  54  0.000  0.250  0.451-   7 2.10  23 2.10  24 2.10  32 2.10  22 2.10  26 2.10
  55  0.750  0.250  0.352-   6 2.10  21 2.10  22 2.10  29 2.10  23 2.10
  56  0.000  0.000  0.352-   5 2.10  21 2.10  22 2.10  30 2.10  24 2.10
  57  0.751  1.000  0.650-  28 2.10  27 2.10  35 2.10  12 2.11  25 2.14
  58  1.000  0.249  0.650-  28 2.10  27 2.10  11 2.10  36 2.11  26 2.14
  59  0.750  0.250  0.549-  27 2.07  26 2.10  25 2.10  33 2.10  10 2.10  23 2.10
  60  1.000  1.000  0.549-  28 2.08  24 2.10  34 2.10  25 2.10   9 2.10  26 2.10
  61  0.750  0.500  0.451-  16 2.10  23 2.10  31 2.10  32 2.10  29 2.10  33 2.12
  62  0.000  0.750  0.451-  15 2.10  24 2.10  31 2.10  32 2.10  30 2.10  34 2.11
  63  0.750  0.750  0.352-  14 2.10  21 2.10  29 2.10  30 2.10  31 2.10
  64  0.000  0.500  0.352-  13 2.10  22 2.10  29 2.10  30 2.10  32 2.10
  65  0.753  0.500  0.650-  36 2.08  27 2.10  35 2.10  20 2.13  33 2.13
  66  1.000  0.750  0.650-  28 2.10  35 2.10  19 2.10  36 2.11  34 2.14
  67  0.750  0.750  0.550-  35 2.07  25 2.10  34 2.10  18 2.10  33 2.10  31 2.11
  68  0.000  0.500  0.549-  36 2.08  34 2.10  26 2.10  32 2.10  17 2.11  33 2.11


IMPORTANT INFORMATION: All symmetrisations will be switched off!
NOSYMM: (Re-)initialisation of all symmetry stuff for point group C_1.


----------------------------------------------------------------------------------------

                                     Primitive cell                                     

  volume of cell :    1504.9259

  direct lattice vectors                    reciprocal lattice vectors
     8.404861995  0.000000000  0.000000000     0.118978753  0.000000000  0.000000000
     0.000000000  8.404861995  0.000000000     0.000000000  0.118978753  0.000000000
     0.000000000  0.000000000 21.303646496     0.000000000  0.000000000  0.046940321

  length of vectors
     8.404861995  8.404861995 21.303646496     0.118978753  0.118978753  0.046940321

  position of ions in fractional coordinates (direct lattice)
     0.499999944  0.502149243  0.760267869
     0.500000034  0.617563335  0.773987834
     0.401937517  0.448266460  0.777840632
     0.598062613  0.448266437  0.777840482
     0.250000000  0.000000000  0.352052406
     0.500000000  0.250000000  0.352052406
     0.250000000  0.250000000  0.450684135
     0.500000000  0.000000000  0.450684135
     0.250364420  0.999831999  0.549477433
     0.500000034  0.251489732  0.550225366
     0.249795854  0.249473908  0.646789003
     0.500000021  0.999934361  0.646994470
     0.250000000  0.500000000  0.352052406
     0.500000000  0.750000000  0.352052406
     0.250000000  0.750000000  0.450684135
     0.500000000  0.500000000  0.450684135
     0.251627110  0.499890738  0.550267156
     0.500000053  0.748245390  0.550307182
     0.249705971  0.749950443  0.646935983
     0.499999993  0.499191956  0.654897984
     0.750000000  0.000000000  0.352052406
     0.000000000  0.250000000  0.352052406
     0.750000000  0.250000000  0.450684135
     0.000000000  0.000000000  0.450684135
     0.749635605  0.999831971  0.549477432
     0.999999998  0.250244413  0.549455002
     0.750204235  0.249473828  0.646788977
     0.999999970  0.999788118  0.647217637
     0.750000000  0.500000000  0.352052406
     0.000000000  0.750000000  0.352052406
     0.750000000  0.750000000  0.450684135
     0.000000000  0.500000000  0.450684135
     0.748372933  0.499890754  0.550267216
     0.999999959  0.749510582  0.549497612
     0.750294033  0.749950448  0.646936038
     0.000000055  0.499770140  0.646993439
     0.250000000  0.000000000  0.450684135
     0.500000000  0.250000000  0.450684135
     0.250000000  0.250000000  0.352052406
     0.500000000  0.000000000  0.352052406
     0.249368353  0.999806238  0.649835296
     0.500000064  0.247072160  0.649871263
     0.249895639  0.249796406  0.549470468
     0.500000027  0.999785892  0.549361331
     0.250000000  0.500000000  0.450684135
     0.500000000  0.750000000  0.450684135
     0.250000000  0.750000000  0.352052406
     0.500000000  0.500000000  0.352052406
     0.247294076  0.499680322  0.650074131
     0.500000004  0.752548192  0.650325762
     0.249976780  0.749936083  0.549544708
     0.499999981  0.499943626  0.550214529
     0.750000000  0.000000000  0.450684135
     0.000000000  0.250000000  0.450684135
     0.750000000  0.250000000  0.352052406
     0.000000000  0.000000000  0.352052406
     0.750631649  0.999806174  0.649835320
     0.999999972  0.249166997  0.649835340
     0.750104399  0.249796364  0.549470458
     0.999999991  0.999858736  0.549375762
     0.750000000  0.500000000  0.450684135
     0.000000000  0.750000000  0.450684135
     0.750000000  0.750000000  0.352052406
     0.000000000  0.500000000  0.352052406
     0.752705898  0.499680247  0.650074076
     0.999999921  0.750411536  0.649837586
     0.750023220  0.749936095  0.549544715
     0.000000022  0.499901832  0.549359006

  ion indices of the primitive-cell ions
   primitive index   ion index
                 1           1
                 2           2
                 3           3
                 4           4
                 5           5
                 6           6
                 7           7
                 8           8
                 9           9
                10          10
                11          11
                12          12
                13          13
                14          14
                15          15
                16          16
                17          17
                18          18
                19          19
                20          20
                21          21
                22          22
                23          23
                24          24
                25          25
                26          26
                27          27
                28          28
                29          29
                30          30
                31          31
                32          32
                33          33
                34          34
                35          35
                36          36
                37          37
                38          38
                39          39
                40          40
                41          41
                42          42
                43          43
                44          44
                45          45
                46          46
                47          47
                48          48
                49          49
                50          50
                51          51
                52          52
                53          53
                54          54
                55          55
                56          56
                57          57
                58          58
                59          59
                60          60
                61          61
                62          62
                63          63
                64          64
                65          65
                66          66
                67          67
                68          68

----------------------------------------------------------------------------------------



 KPOINTS: pymatgen v2020.8.13 with grid density = 

Automatic generation of k-mesh.
 Grid dimensions read from file:
 generate k-points for:    2    2    1

 Generating k-lattice:

  Cartesian coordinates                     Fractional coordinates (reciprocal lattice)
     0.059489377  0.000000000  0.000000000     0.500000000  0.000000000  0.000000000
     0.000000000  0.059489377  0.000000000     0.000000000  0.500000000  0.000000000
     0.000000000  0.000000000  0.046940321     0.000000000  0.000000000  1.000000000

  Length of vectors
     0.059489377  0.059489377  0.046940321

  Shift w.r.t. Gamma in fractional coordinates (k-lattice)
     0.000000000  0.000000000  0.000000000

 
 Subroutine IBZKPT returns following result:
 ===========================================
 
 Found      4 irreducible k-points:
 
 Following reciprocal coordinates:
            Coordinates               Weight
  0.000000  0.000000  0.000000      1.000000
  0.500000  0.000000  0.000000      1.000000
  0.000000  0.500000  0.000000      1.000000
  0.500000  0.500000  0.000000      1.000000
 
 Following cartesian coordinates:
            Coordinates               Weight
  0.000000  0.000000  0.000000      1.000000
  0.059489  0.000000  0.000000      1.000000
  0.000000  0.059489  0.000000      1.000000
  0.059489  0.059489  0.000000      1.000000
 
 
 Subroutine IBZKPT_HF returns following result:
 ==============================================
 
 Found      4 k-points in 1st BZ
 the following      4 k-points will be used (e.g. in the exchange kernel)
 Following reciprocal coordinates:   # in IRBZ
  0.000000  0.000000  0.000000    0.25000000   1 t-inv F
  0.500000  0.000000  0.000000    0.25000000   2 t-inv F
  0.000000  0.500000  0.000000    0.25000000   3 t-inv F
  0.500000  0.500000  0.000000    0.25000000   4 t-inv F


--------------------------------------------------------------------------------------------------------




 Dimension of arrays:
   k-points           NKPTS =      4   k-points in BZ     NKDIM =      4   number of bands    NBANDS=    320
   number of dos      NEDOS =    301   number of ions     NIONS =     68
   non local maximal  LDIM  =      5   non local SUM 2l+1 LMDIM =     13
   total plane-waves  NPLWV = 882000
   max r-space proj   IRMAX =      1   max aug-charges    IRDMAX=  11749
   dimension x,y,z NGX =    70 NGY =   70 NGZ =  180
   dimension x,y,z NGXF=   140 NGYF=  140 NGZF=  360
   support grid    NGXF=   140 NGYF=  140 NGZF=  360
   ions per type =               1   3  32  32
   NGX,Y,Z   is equivalent  to a cutoff of  13.85, 13.85, 14.05 a.u.
   NGXF,Y,Z  is equivalent  to a cutoff of  27.69, 27.69, 28.09 a.u.

 SYSTEM =  MgO-rocksalt                            
 POSCAR =   N  H Mg  O                             

--------------------------------------------------------------------------------------------------------


  energy-cutoff  :      600.00
  volume of cell :     1504.93
      direct lattice vectors                 reciprocal lattice vectors
     8.404861995  0.000000000  0.000000000     0.118978753  0.000000000  0.000000000
     0.000000000  8.404861995  0.000000000     0.000000000  0.118978753  0.000000000
     0.000000000  0.000000000 21.303646496     0.000000000  0.000000000  0.046940321

  length of vectors
     8.404861995  8.404861995 21.303646496     0.118978753  0.118978753  0.046940321



 k-points in units of 2pi/SCALE and weight: pymatgen v2020.8.13 with grid density = 
   0.00000000  0.00000000  0.00000000       0.250
   0.05948938  0.00000000  0.00000000       0.250
   0.00000000  0.05948938  0.00000000       0.250
   0.05948938  0.05948938  0.00000000       0.250

 k-points in reciprocal lattice and weights: pymatgen v2020.8.13 with grid density = 
   0.00000000  0.00000000  0.00000000       0.250
   0.50000000  0.00000000  0.00000000       0.250
   0.00000000  0.50000000  0.00000000       0.250
   0.50000000  0.50000000  0.00000000       0.250

 position of ions in fractional coordinates (direct lattice) 
   0.49999994  0.50214924  0.76026787
   0.50000003  0.61756333  0.77398783
   0.40193752  0.44826646  0.77784063
   0.59806261  0.44826644  0.77784048
   0.25000000  0.00000000  0.35205241
   0.50000000  0.25000000  0.35205241
   0.25000000  0.25000000  0.45068414
   0.50000000  0.00000000  0.45068414
   0.25036442  0.99983200  0.54947743
   0.50000003  0.25148973  0.55022537
   0.24979585  0.24947391  0.64678900
   0.50000002  0.99993436  0.64699447
   0.25000000  0.50000000  0.35205241
   0.50000000  0.75000000  0.35205241
   0.25000000  0.75000000  0.45068414
   0.50000000  0.50000000  0.45068414
   0.25162711  0.49989074  0.55026716
   0.50000005  0.74824539  0.55030718
   0.24970597  0.74995044  0.64693598
   0.49999999  0.49919196  0.65489798
   0.75000000  0.00000000  0.35205241
   0.00000000  0.25000000  0.35205241
   0.75000000  0.25000000  0.45068414
   0.00000000  0.00000000  0.45068414
   0.74963560  0.99983197  0.54947743
   1.00000000  0.25024441  0.54945500
   0.75020424  0.24947383  0.64678898
   0.99999997  0.99978812  0.64721764
   0.75000000  0.50000000  0.35205241
   0.00000000  0.75000000  0.35205241
   0.75000000  0.75000000  0.45068414
   0.00000000  0.50000000  0.45068414
   0.74837293  0.49989075  0.55026722
   0.99999996  0.74951058  0.54949761
   0.75029403  0.74995045  0.64693604
   0.00000005  0.49977014  0.64699344
   0.25000000  0.00000000  0.45068414
   0.50000000  0.25000000  0.45068414
   0.25000000  0.25000000  0.35205241
   0.50000000  0.00000000  0.35205241
   0.24936835  0.99980624  0.64983530
   0.50000006  0.24707216  0.64987126
   0.24989564  0.24979641  0.54947047
   0.50000003  0.99978589  0.54936133
   0.25000000  0.50000000  0.45068414
   0.50000000  0.75000000  0.45068414
   0.25000000  0.75000000  0.35205241
   0.50000000  0.50000000  0.35205241
   0.24729408  0.49968032  0.65007413
   0.50000000  0.75254819  0.65032576
   0.24997678  0.74993608  0.54954471
   0.49999998  0.49994363  0.55021453
   0.75000000  0.00000000  0.45068414
   0.00000000  0.25000000  0.45068414
   0.75000000  0.25000000  0.35205241
   0.00000000  0.00000000  0.35205241
   0.75063165  0.99980617  0.64983532
   0.99999997  0.24916700  0.64983534
   0.75010440  0.24979636  0.54947046
   0.99999999  0.99985874  0.54937576
   0.75000000  0.50000000  0.45068414
   0.00000000  0.75000000  0.45068414
   0.75000000  0.75000000  0.35205241
   0.00000000  0.50000000  0.35205241
   0.75270590  0.49968025  0.65007408
   0.99999992  0.75041154  0.64983759
   0.75002322  0.74993609  0.54954471
   0.00000002  0.49990183  0.54935901

 position of ions in cartesian coordinates  (Angst):
   4.20243053  4.22049509 16.19647792
   4.20243129  5.19053460 16.48876320
   3.37822936  3.76761773 16.57084186
   5.02663372  3.76761754 16.57083867
   2.10121550  0.00000000  7.50000000
   4.20243100  2.10121550  7.50000000
   2.10121550  2.10121550  9.60121550
   4.20243100  0.00000000  9.60121550
   2.10427840  8.40344997 11.70587298
   4.20243129  2.11373649 11.72180669
   2.09949968  2.09679377 13.77896429
   4.20243117  8.40431031 13.78334147
   2.10121550  4.20243100  7.50000000
   4.20243100  6.30364650  7.50000000
   2.10121550  6.30364650  9.60121550
   4.20243100  4.20243100  9.60121550
   2.11489114  4.20151266 11.72269697
   4.20243144  6.28889924 11.72354967
   2.09874423  6.30322998 13.78209549
   4.20243094  4.19563950 13.95171513
   6.30364650  0.00000000  7.50000000
   0.00000000  2.10121550  7.50000000
   6.30364650  2.10121550  9.60121550
   0.00000000  0.00000000  9.60121550
   6.30058381  8.40344974 11.70587297
   8.40486198  2.10326976 11.70539512
   6.30536306  2.09679310 13.77896372
   8.40486174  8.40308116 13.78809575
   6.30364650  4.20243100  7.50000000
   0.00000000  6.30364650  7.50000000
   6.30364650  6.30364650  9.60121550
   0.00000000  4.20243100  9.60121550
   6.28997123  4.20151280 11.72269826
   8.40486165  6.29953300 11.70630287
   6.30611781  6.30323001 13.78209667
   0.00000046  4.20049906 13.78331951
   2.10121550  0.00000000  9.60121550
   4.20243100  2.10121550  9.60121550
   2.10121550  2.10121550  7.50000000
   4.20243100  0.00000000  7.50000000
   2.09590659  8.40323345 13.84386143
   4.20243153  2.07660740 13.84462766
   2.10033836  2.09950432 11.70572462
   4.20243122  8.40306245 11.70339960
   2.10121550  4.20243100  9.60121550
   4.20243100  6.30364650  9.60121550
   2.10121550  6.30364650  7.50000000
   4.20243100  4.20243100  7.50000000
   2.07847258  4.19974415 13.84894948
   4.20243103  6.32506370 13.85431013
   2.10102033  6.30310928 11.70730620
   4.20243084  4.20195718 11.72157583
   6.30364650  0.00000000  9.60121550
   0.00000000  2.10121550  9.60121550
   6.30364650  2.10121550  7.50000000
   0.00000000  0.00000000  7.50000000
   6.30895542  8.40323292 13.84386195
   8.40486176  2.09421422 13.84386236
   6.30452395  2.09950397 11.70572440
   8.40486192  8.40367469 11.70370703
   6.30364650  4.20243100  9.60121550
   0.00000000  6.30364650  9.60121550
   6.30364650  6.30364650  7.50000000
   0.00000000  4.20243100  7.50000000
   6.32638920  4.19974351 13.84894832
   8.40486133  6.30710540 13.84391021
   6.30384165  6.30310938 11.70730634
   0.00000018  4.20160591 11.70335007



--------------------------------------------------------------------------------------------------------

--------------------------------------- Iteration      FINAL  ---------------------------------------


--------------------OUTCAR has been truncated-------------------------


--------------------OUTCAR has been truncated-------------------------


--------------------OUTCAR has been truncated-------------------------


--------------------OUTCAR has been truncated-------------------------


--------------------OUTCAR has been truncated-------------------------


--------------------OUTCAR has been truncated-------------------------


--------------------OUTCAR has been truncated-------------------------


--------------------OUTCAR has been truncated-------------------------


--------------------OUTCAR has been truncated-------------------------


--------------------OUTCAR has been truncated-------------------------



 VOLUME and BASIS-vectors are now :
 -----------------------------------------------------------------------------
  energy-cutoff  :      600.00
  volume of cell :     1504.93
      direct lattice vectors                 reciprocal lattice vectors
     8.404861995  0.000000000  0.000000000     0.118978753  0.000000000  0.000000000
     0.000000000  8.404861995  0.000000000     0.000000000  0.118978753  0.000000000
     0.000000000  0.000000000 21.303646496     0.000000000  0.000000000  0.046940321

  length of vectors
     8.404861995  8.404861995 21.303646496     0.118978753  0.118978753  0.046940321


 FORCES acting on ions:
    Electron-Ion                     Ewald-Force                    Non-Local-Force
 -----------------------------------------------------------------------------------------------
   0.586E-04 0.251E+01 -.135E+04   -.964E-04 -.391E+01 0.132E+04   0.517E-04 0.128E+01 0.223E+02
   -.454E-04 -.691E+02 -.279E+03   0.500E-04 0.764E+02 0.281E+03   -.506E-05 -.694E+01 -.184E+01
   0.590E+02 0.327E+02 -.280E+03   -.652E+02 -.360E+02 0.283E+03   0.592E+01 0.325E+01 -.245E+01
   -.590E+02 0.327E+02 -.280E+03   0.652E+02 -.360E+02 0.283E+03   -.592E+01 0.325E+01 -.245E+01
   -.675E-01 0.318E-01 0.211E+04   0.786E-01 -.326E-01 -.210E+04   -.691E-02 0.554E-03 -.677E+01
   0.173E-05 -.574E-01 0.211E+04   -.988E-07 0.726E-01 -.210E+04   -.920E-06 -.976E-02 -.681E+01
   -.395E+00 -.409E+00 0.722E+03   0.471E+00 0.485E+00 -.723E+03   -.464E-01 -.471E-01 0.447E+00
   0.422E-04 0.117E+00 0.722E+03   -.409E-04 -.135E+00 -.723E+03   0.717E-06 0.112E-01 0.330E+00
   0.279E+01 0.198E+00 -.651E+03   -.269E+01 -.206E+00 0.651E+03   -.902E-01 0.726E-02 -.848E-02
   0.961E-04 0.295E+01 -.651E+03   -.951E-04 -.250E+01 0.651E+03   -.454E-05 -.406E+00 -.435E+00
   0.195E+02 0.195E+02 -.201E+04   -.196E+02 -.196E+02 0.200E+04   0.797E-01 0.967E-01 0.602E+01
   0.186E-03 -.406E-01 -.202E+04   -.184E-03 0.884E-01 0.201E+04   -.296E-05 -.423E-01 0.585E+01
   -.572E-01 -.329E-01 0.211E+04   0.727E-01 0.332E-01 -.210E+04   -.996E-02 -.136E-03 -.681E+01
   0.270E-05 0.570E-01 0.211E+04   -.927E-06 -.728E-01 -.210E+04   -.269E-05 0.102E-01 -.682E+01
   -.398E+00 0.388E+00 0.722E+03   0.488E+00 -.477E+00 -.723E+03   -.550E-01 0.540E-01 0.472E+00
   -.524E-04 -.153E+00 0.721E+03   0.587E-04 0.160E+00 -.721E+03   -.396E-05 -.460E-02 0.471E+00
   0.291E+01 -.221E+00 -.652E+03   -.246E+01 0.228E+00 0.652E+03   -.409E+00 -.596E-02 -.380E+00
   0.164E-03 -.284E+01 -.653E+03   -.161E-03 0.239E+01 0.653E+03   -.499E-05 0.408E+00 -.303E+00
   0.195E+02 -.195E+02 -.201E+04   -.197E+02 0.196E+02 0.200E+04   0.113E+00 -.884E-01 0.600E+01
   0.480E-04 0.228E+00 -.196E+04   -.496E-04 -.395E+00 0.195E+04   -.123E-05 0.148E+00 0.100E+01
   0.675E-01 0.318E-01 0.211E+04   -.786E-01 -.326E-01 -.210E+04   0.691E-02 0.556E-03 -.677E+01
   0.852E-08 -.678E-01 0.211E+04   0.429E-06 0.786E-01 -.210E+04   0.463E-06 -.674E-02 -.677E+01
   0.395E+00 -.409E+00 0.722E+03   -.471E+00 0.485E+00 -.723E+03   0.464E-01 -.471E-01 0.447E+00
   -.439E-04 0.113E+00 0.722E+03   0.441E-04 -.119E+00 -.723E+03   -.106E-05 0.294E-02 0.398E+00
   -.279E+01 0.198E+00 -.651E+03   0.269E+01 -.206E+00 0.651E+03   0.901E-01 0.726E-02 -.847E-02
   -.158E-03 0.278E+01 -.651E+03   0.153E-03 -.269E+01 0.651E+03   0.318E-05 -.906E-01 0.841E-02
   -.195E+02 0.195E+02 -.201E+04   0.196E+02 -.196E+02 0.200E+04   -.797E-01 0.967E-01 0.602E+01
   -.278E-03 -.670E-01 -.204E+04   0.275E-03 0.699E-01 0.203E+04   0.507E-05 -.228E-02 0.590E+01
   0.572E-01 -.329E-01 0.211E+04   -.727E-01 0.332E-01 -.210E+04   0.996E-02 -.133E-03 -.681E+01
   -.188E-05 0.671E-01 0.211E+04   0.115E-05 -.785E-01 -.210E+04   0.414E-05 0.709E-02 -.677E+01
   0.398E+00 0.389E+00 0.722E+03   -.488E+00 -.477E+00 -.723E+03   0.550E-01 0.540E-01 0.472E+00
   0.381E-04 -.137E+00 0.722E+03   -.427E-04 0.132E+00 -.723E+03   0.159E-05 0.296E-02 0.329E+00
   -.291E+01 -.221E+00 -.652E+03   0.246E+01 0.228E+00 0.652E+03   0.409E+00 -.596E-02 -.380E+00
   -.176E-03 -.279E+01 -.652E+03   0.175E-03 0.269E+01 0.652E+03   0.106E-05 0.912E-01 -.226E-01
   -.195E+02 -.195E+02 -.201E+04   0.197E+02 0.196E+02 0.200E+04   -.113E+00 -.884E-01 0.600E+01
   0.762E-04 0.743E-02 -.202E+04   -.637E-04 -.135E-01 0.201E+04   -.160E-04 0.546E-02 0.585E+01
   -.565E-01 0.916E-01 0.542E+03   0.820E-01 -.812E-01 -.542E+03   -.311E-01 -.120E-01 -.572E-02
   0.596E-05 0.100E+00 0.540E+03   -.101E-04 -.135E+00 -.540E+03   0.314E-06 0.351E-01 -.180E+00
   -.527E-01 -.530E-01 0.158E+04   0.657E-01 0.668E-01 -.158E+04   -.155E-01 -.165E-01 0.302E+01
   0.198E-05 0.248E-01 0.158E+04   -.381E-05 -.259E-01 -.158E+04   0.606E-06 0.128E-02 0.302E+01
   0.743E+01 0.382E-01 -.155E+04   -.726E+01 -.636E-01 0.155E+04   -.142E+00 0.219E-01 -.441E+01
   0.752E-04 0.252E+02 -.151E+04   -.729E-04 -.245E+02 0.152E+04   -.272E-05 -.587E+00 -.431E+01
   0.192E+01 0.186E+01 -.479E+03   -.190E+01 -.185E+01 0.479E+03   -.169E-01 -.113E-01 0.558E+00
   0.107E-03 0.209E+00 -.479E+03   -.111E-03 -.197E+00 0.479E+03   0.871E-06 -.106E-01 0.446E+00
   0.108E+00 -.118E+00 0.540E+03   -.150E+00 0.123E+00 -.540E+03   0.432E-01 -.457E-02 -.192E+00
   0.258E-04 -.113E+00 0.540E+03   -.205E-04 0.162E+00 -.540E+03   0.234E-06 -.506E-01 -.202E+00
   -.540E-01 0.537E-01 0.158E+04   0.683E-01 -.671E-01 -.158E+04   -.171E-01 0.160E-01 0.302E+01
   -.125E-05 -.247E-01 0.158E+04   0.426E-05 0.261E-01 -.158E+04   -.457E-06 -.174E-02 0.299E+01
   0.252E+02 -.605E-01 -.151E+04   -.245E+02 0.768E-01 0.152E+04   -.621E+00 -.145E-01 -.427E+01
   0.938E-04 -.251E+02 -.151E+04   -.103E-03 0.243E+02 0.152E+04   0.251E-05 0.663E+00 -.422E+01
   0.180E+01 -.185E+01 -.480E+03   -.180E+01 0.184E+01 0.480E+03   -.366E-02 0.115E-01 0.551E+00
   -.411E-04 -.299E+00 -.496E+03   0.424E-04 0.287E+00 0.497E+03   -.586E-06 0.101E-01 -.115E+01
   0.565E-01 0.916E-01 0.542E+03   -.820E-01 -.812E-01 -.542E+03   0.311E-01 -.120E-01 -.572E-02
   -.125E-04 -.665E-01 0.542E+03   0.112E-04 0.982E-01 -.542E+03   0.261E-05 -.383E-01 -.534E-02
   0.527E-01 -.530E-01 0.158E+04   -.657E-01 0.668E-01 -.158E+04   0.155E-01 -.165E-01 0.302E+01
   -.211E-05 0.236E-01 0.158E+04   0.396E-05 -.234E-01 -.158E+04   -.917E-07 -.219E-03 0.304E+01
   -.743E+01 0.381E-01 -.155E+04   0.726E+01 -.635E-01 0.155E+04   0.142E+00 0.219E-01 -.441E+01
   -.208E-03 0.744E+01 -.155E+04   0.220E-03 -.728E+01 0.155E+04   -.653E-05 -.139E+00 -.441E+01
   -.192E+01 0.186E+01 -.479E+03   0.190E+01 -.185E+01 0.479E+03   0.169E-01 -.113E-01 0.558E+00
   -.140E-03 0.690E-01 -.486E+03   0.148E-03 -.653E-01 0.486E+03   -.450E-05 -.291E-02 0.300E+00
   -.108E+00 -.118E+00 0.540E+03   0.150E+00 0.123E+00 -.540E+03   -.432E-01 -.457E-02 -.192E+00
   -.201E-04 0.452E-01 0.542E+03   0.210E-04 -.645E-01 -.542E+03   -.218E-05 0.242E-01 -.512E-02
   0.540E-01 0.537E-01 0.158E+04   -.683E-01 -.671E-01 -.158E+04   0.171E-01 0.160E-01 0.302E+01
   0.469E-05 -.233E-01 0.158E+04   -.383E-05 0.234E-01 -.158E+04   0.149E-05 -.174E-03 0.302E+01
   -.252E+02 -.605E-01 -.151E+04   0.245E+02 0.769E-01 0.152E+04   0.621E+00 -.144E-01 -.427E+01
   -.259E-03 -.739E+01 -.155E+04   0.262E-03 0.723E+01 0.155E+04   0.128E-05 0.140E+00 -.442E+01
   -.180E+01 -.185E+01 -.480E+03   0.180E+01 0.184E+01 0.480E+03   0.366E-02 0.115E-01 0.551E+00
   -.409E-04 -.689E-01 -.479E+03   0.416E-04 0.641E-01 0.479E+03   -.542E-06 0.383E-02 0.445E+00
 -----------------------------------------------------------------------------------------------
   0.357E-04 -.117E+01 0.456E+01   -.853E-13 -.405E-12 -.534E-11   -.422E-04 0.103E+01 -.337E+01


 POSITION                                       TOTAL-FORCE (eV/Angst)
 -----------------------------------------------------------------------------------
      4.20243      4.22050     16.19648         0.000019      0.012588     -0.042493
      4.20243      5.19053     16.48876        -0.000001     -0.061060     -0.006347
      3.37823      3.76762     16.57084         0.055250      0.040274     -0.001300
      5.02663      3.76762     16.57084        -0.055269      0.040283     -0.001304
      2.10122      0.00000      7.50000         0.003054     -0.000129      0.520039
      4.20243      2.10122      7.50000         0.000001      0.003949      0.530236
      2.10122      2.10122      9.60122         0.021881      0.021636      0.035360
      4.20243      0.00000      9.60122         0.000003     -0.004922      0.064716
      2.10428      8.40345     11.70587        -0.004860      0.000251     -0.005631
      4.20243      2.11374     11.72181        -0.000003     -0.006083     -0.022240
      2.09950      2.09679     13.77896        -0.002174     -0.002301     -0.107059
      4.20243      8.40431     13.78334        -0.000002      0.000258     -0.101247
      2.10122      4.20243      7.50000         0.003941      0.000139      0.530962
      4.20243      6.30365      7.50000        -0.000001     -0.003927      0.531600
      2.10122      6.30365      9.60122         0.025236     -0.025426      0.037584
      4.20243      4.20243      9.60122         0.000002      0.001528      0.079698
      2.11489      4.20151     11.72270        -0.006102     -0.000145     -0.022478
      4.20243      6.28890     11.72355        -0.000003      0.006029     -0.022555
      2.09874      6.30323     13.78210        -0.002139      0.001970     -0.106031
      4.20243      4.19564     13.95172        -0.000005     -0.000622     -0.144907
      6.30365      0.00000      7.50000        -0.003055     -0.000128      0.520042
      0.00000      2.10122      7.50000         0.000002      0.003061      0.520261
      6.30365      2.10122      9.60122        -0.021880      0.021641      0.035364
      0.00000      0.00000      9.60122        -0.000001     -0.001637      0.023865
      6.30058      8.40345     11.70587         0.004857      0.000252     -0.005631
      8.40486      2.10327     11.70540        -0.000003     -0.004749     -0.005183
      6.30536      2.09679     13.77896         0.002170     -0.002293     -0.106949
      8.40486      8.40308     13.78810         0.000003      0.000390     -0.120149
      6.30365      4.20243      7.50000        -0.003943      0.000139      0.530965
      0.00000      6.30365      7.50000         0.000004     -0.003034      0.519751
      6.30365      6.30365      9.60122        -0.025235     -0.025431      0.037580
      0.00000      4.20243      9.60122        -0.000002     -0.001447      0.064771
      6.28997      4.20151     11.72270         0.006095     -0.000147     -0.022477
      8.40486      6.29953     11.70630         0.000001      0.005025     -0.006110
      6.30612      6.30323     13.78210         0.002139      0.001966     -0.106046
      0.00000      4.20050     13.78332        -0.000003      0.000160     -0.101272
      2.10122      0.00000      9.60122        -0.011504     -0.003692      0.046708
      4.20243      2.10122      9.60122        -0.000004      0.006348      0.066087
      2.10122      2.10122      7.50000        -0.005328     -0.005620     -0.470090
      4.20243      0.00000      7.50000        -0.000001      0.000500     -0.471037
      2.09591      8.40323     13.84386         0.000646     -0.000062     -0.018424
      4.20243      2.07661     13.84463        -0.000001     -0.011805     -0.020359
      2.10034      2.09950     11.70572        -0.002396     -0.002498     -0.008268
      4.20243      8.40306     11.70340        -0.000004      0.000305     -0.009135
      2.10122      4.20243      9.60122         0.008750     -0.001093      0.066308
      4.20243      6.30365      9.60122         0.000006     -0.010937      0.066642
      2.10122      6.30365      7.50000        -0.005865      0.005559     -0.470256
      4.20243      4.20243      7.50000         0.000003     -0.000546     -0.479291
      2.07847      4.19974     13.84895        -0.012541     -0.000439     -0.021319
      4.20243      6.32506     13.85431        -0.000006      0.013537     -0.022974
      2.10102      6.30311     11.70731        -0.002312      0.002259     -0.007837
      4.20243      4.20196     11.72158         0.000001     -0.000287      0.013563
      6.30365      0.00000      9.60122         0.011509     -0.003694      0.046708
      0.00000      2.10122      9.60122         0.000002     -0.013581      0.044175
      6.30365      2.10122      7.50000         0.005327     -0.005621     -0.470088
      0.00000      0.00000      7.50000         0.000002     -0.000011     -0.464257
      6.30896      8.40323     13.84386        -0.000644     -0.000062     -0.018426
      8.40486      2.09421     13.84386         0.000004      0.000575     -0.017553
      6.30452      2.09950     11.70572         0.002400     -0.002490     -0.008267
      8.40486      8.40367     11.70371         0.000004      0.000515     -0.014806
      6.30365      4.20243      9.60122        -0.008750     -0.001092      0.066313
      0.00000      6.30365      9.60122        -0.000002      0.009586      0.049322
      6.30365      6.30365      7.50000         0.005861      0.005559     -0.470250
      0.00000      4.20243      7.50000         0.000003     -0.000013     -0.471038
      6.32639      4.19974     13.84895         0.012544     -0.000430     -0.021304
      8.40486      6.30711     13.84391         0.000006     -0.000728     -0.019289
      6.30384      6.30311     11.70731         0.002312      0.002257     -0.007840
      0.00000      4.20161     11.70335         0.000000     -0.000354     -0.009102
 -----------------------------------------------------------------------------------
    total drift:                               -0.000014     -0.004482     -0.010652


--------------------------------------------------------------------------------------------------------



  FREE ENERGIE OF THE ION-ELECTRON SYSTEM (eV)
  ---------------------------------------------------
  free  energy   TOTEN  =      -496.74579995 eV

  energy  without entropy=     -496.74579995  energy(sigma->0) =     -496.74579995



--------------------------------------------------------------------------------------------------------


    POTLOK:  cpu time      1.0755: real time      1.0755


--------------------------------------------------------------------------------------------------------


     LOOP+:  cpu time   5267.4029: real time   5268.7782
    4ORBIT:  cpu time      0.0000: real time      0.0000

 total amount of memory used by VASP MPI-rank0   199289. kBytes
=======================================================================

   base      :      30000. kBytes
   nonl-proj :      17436. kBytes
   fftplans  :       7992. kBytes
   grid      :       8190. kBytes
   one-center:         73. kBytes
   HF        :        101. kBytes
   nonlr-proj:       7675. kBytes
   wavefun   :       6204. kBytes
   fock_wrk  :     121618. kBytes

  
  
 General timing and accounting informations for this job:
 ========================================================
  
                  Total CPU time used (sec):     5305.015
                            User time (sec):     5293.433
                          System time (sec):       11.582
                         Elapsed time (sec):     5318.227
  
                   Maximum memory used (kb):      451028.
                   Average memory used (kb):          N/A
  
                          Minor page faults:       290354
                          Major page faults:           49
                 Voluntary context switches:        15079
