 **********************************************************************
                          MRCC program system
 **********************************************************************
 
                              Written by
     Mihaly Kallay, Peter R. Nagy, David Mester, Laszlo Gyevi-Nagy,
        Jozsef Csoka, P. Bernat Szabo, Zoltan Rolik, Gyula Samu,
     Jozsef Csontos, Bence Hegely, Adam Ganyecz, Istvan Ladjanszki,
       Lorant Szegedy, Bence Ladoczki, Klara Petrov, Mate Farkas,
                    Pal D. Mezei, and Reka A. Horvath
 
        Department of Physical Chemistry and Materials Science
            Budapest University of Technology and Economics
                  Budapest P.O.Box 91, H-1521 Hungary
 
                              www.mrcc.hu
 
                     Release date: August 28, 2023

 ************************ 2024-11-01 18:58:22 *************************
 Executing minp...

 Reading input from MINP...
 
 Input file:
 
calc=LNO-CCSD(T)
scftype=rhf
verbosity=3
mem=100000MB
symm=off
unit=angs
scfiguess=restart
scfmaxit=1000
scfalg=locfit1
bpedo=0.99999
ccmaxit=400
usedisk=0
ccsdalg=dfdirect
ccsdthreads=4
ccsdmkl=thr
ptthreads=4
lcorthr=tight
basis_sm=special
def2-SVP
def2-SVP
def2-SVP
def2-SVP
def2-SVP
def2-SVP
def2-SVP
def2-SVP
def2-SVP
def2-SVP
def2-SVP
def2-SVP
def2-SVP
def2-SVP
def2-SVP
def2-SVP
def2-SVP
def2-SVP
def2-SVP
def2-SVP
def2-SVP
def2-SVP
def2-SVP
def2-SVP
def2-SVP
def2-SVP
def2-SVP
def2-SVP
def2-SVP
def2-SVP
def2-SVP
def2-SVP
def2-SVP
def2-SVP
def2-SVP
def2-SVP
def2-SVP
def2-SVP
def2-SVP
def2-SVP
def2-SVP
def2-SVP
def2-SVP
def2-SVP
def2-SVP
def2-SVP
def2-SVP
def2-SVP
def2-SVP
def2-SVP
def2-SVP
def2-SVP
def2-SVP
def2-SVP
def2-SVP
def2-SVP
def2-SVP
def2-SVP


basis=special
aug-cc-pVTZ
aug-cc-pVTZ
aug-cc-pVTZ
aug-cc-pVTZ
cc-pVTZ
cc-pVTZ
cc-pVTZ
cc-pVTZ
cc-pVTZ
aug-cc-pVTZ
aug-cc-pVTZ
aug-cc-pVTZ
aug-cc-pVTZ
aug-cc-pVTZ
aug-cc-pVTZ
aug-cc-pVTZ
aug-cc-pVTZ
cc-pVTZ
cc-pVTZ
cc-pVTZ
cc-pVTZ
aug-cc-pVTZ
aug-cc-pVTZ
aug-cc-pVTZ
aug-cc-pVTZ
aug-cc-pVTZ
cc-pVTZ
cc-pVTZ
cc-pVTZ
cc-pVTZ
cc-pVTZ
cc-pVTZ
cc-pVTZ
cc-pVTZ
aug-cc-pVTZ
aug-cc-pVTZ
aug-cc-pVTZ
aug-cc-pVTZ
aug-cc-pVTZ
aug-cc-pVTZ
aug-cc-pVTZ
aug-cc-pVTZ
aug-cc-pVTZ
aug-cc-pVTZ
aug-cc-pVTZ
aug-cc-pVTZ
aug-cc-pVTZ
aug-cc-pVTZ
aug-cc-pVTZ
aug-cc-pVTZ
aug-cc-pVTZ
aug-cc-pVTZ
aug-cc-pVTZ
aug-cc-pVTZ
aug-cc-pVTZ
aug-cc-pVTZ
aug-cc-pVTZ
aug-cc-pVTZ


dfbasis_scf=special
def2-QZVPP-RI-JK
def2-QZVPP-RI-JK
def2-QZVPP-RI-JK
def2-QZVPP-RI-JK
def2-QZVPP-RI-JK
def2-QZVPP-RI-JK
def2-QZVPP-RI-JK
def2-QZVPP-RI-JK
def2-QZVPP-RI-JK
def2-QZVPP-RI-JK
def2-QZVPP-RI-JK
def2-QZVPP-RI-JK
def2-QZVPP-RI-JK
def2-QZVPP-RI-JK
def2-QZVPP-RI-JK
def2-QZVPP-RI-JK
def2-QZVPP-RI-JK
def2-QZVPP-RI-JK
def2-QZVPP-RI-JK
def2-QZVPP-RI-JK
def2-QZVPP-RI-JK
def2-QZVPP-RI-JK
def2-QZVPP-RI-JK
def2-QZVPP-RI-JK
def2-QZVPP-RI-JK
def2-QZVPP-RI-JK
def2-QZVPP-RI-JK
def2-QZVPP-RI-JK
def2-QZVPP-RI-JK
def2-QZVPP-RI-JK
def2-QZVPP-RI-JK
def2-QZVPP-RI-JK
def2-QZVPP-RI-JK
def2-QZVPP-RI-JK
def2-QZVPP-RI-JK
def2-QZVPP-RI-JK
def2-QZVPP-RI-JK
def2-QZVPP-RI-JK
def2-QZVPP-RI-JK
def2-QZVPP-RI-JK
def2-QZVPP-RI-JK
def2-QZVPP-RI-JK
def2-QZVPP-RI-JK
def2-QZVPP-RI-JK
def2-QZVPP-RI-JK
def2-QZVPP-RI-JK
def2-QZVPP-RI-JK
def2-QZVPP-RI-JK
def2-QZVPP-RI-JK
def2-QZVPP-RI-JK
def2-QZVPP-RI-JK
def2-QZVPP-RI-JK
def2-QZVPP-RI-JK
def2-QZVPP-RI-JK
def2-QZVPP-RI-JK
def2-QZVPP-RI-JK
def2-QZVPP-RI-JK
def2-QZVPP-RI-JK


dfbasis_cor=special
aug-cc-pVTZ-RI
aug-cc-pVTZ-RI
aug-cc-pVTZ-RI
aug-cc-pVTZ-RI
cc-pVTZ-RI
cc-pVTZ-RI
cc-pVTZ-RI
cc-pVTZ-RI
cc-pVTZ-RI
aug-cc-pVTZ-RI
aug-cc-pVTZ-RI
aug-cc-pVTZ-RI
aug-cc-pVTZ-RI
aug-cc-pVTZ-RI
aug-cc-pVTZ-RI
aug-cc-pVTZ-RI
aug-cc-pVTZ-RI
cc-pVTZ-RI
cc-pVTZ-RI
cc-pVTZ-RI
cc-pVTZ-RI
aug-cc-pVTZ-RI
aug-cc-pVTZ-RI
aug-cc-pVTZ-RI
aug-cc-pVTZ-RI
aug-cc-pVTZ-RI
cc-pVTZ-RI
cc-pVTZ-RI
cc-pVTZ-RI
cc-pVTZ-RI
cc-pVTZ-RI
cc-pVTZ-RI
cc-pVTZ-RI
cc-pVTZ-RI
aug-cc-pVTZ-RI
aug-cc-pVTZ-RI
aug-cc-pVTZ-RI
aug-cc-pVTZ-RI
aug-cc-pVTZ-RI
aug-cc-pVTZ-RI
aug-cc-pVTZ-RI
aug-cc-pVTZ-RI
aug-cc-pVTZ-RI
aug-cc-pVTZ-RI
aug-cc-pVTZ-RI
aug-cc-pVTZ-RI
aug-cc-pVTZ-RI
aug-cc-pVTZ-RI
aug-cc-pVTZ-RI
aug-cc-pVTZ-RI
aug-cc-pVTZ-RI
aug-cc-pVTZ-RI
aug-cc-pVTZ-RI
aug-cc-pVTZ-RI
aug-cc-pVTZ-RI
aug-cc-pVTZ-RI
aug-cc-pVTZ-RI
aug-cc-pVTZ-RI


ecp=special
none
none
none
none
none
none
none
none
none
none
none
none
none
none
none
none
none
none
none
none
none
none
none
none
none
none
none
none
none
none
none
none
none
none
none
none
none
none
none
none
none
none
none
none
none
none
none
none
none
none
none
none
none
none
none
none
none
none

charge=0
mult=1
core=3
geom=xyz
58

C                       0.00000033711   -0.00006957891    1.46950423848
O                       0.00000079691    1.15576487802    1.96408033078
O                       0.00000036349   -1.15570036094    1.96405571416
O                       0.00000000000    0.00000000000    0.00000000000
Mg                      0.00000024929    2.20484637813    0.06544084864
Mg                      0.00000024579   -2.20485539840    0.06544759026
Mg                      2.21850991033   -0.00000742419   -0.16405174740
Mg                     -2.21850893576   -0.00000746138   -0.16405374819
Mg                      0.00000050214   -0.00000677559   -2.28878000730
O                      -2.12578919050    2.09760044175   -0.11351137219
O                       2.12579000542    2.09760027931   -0.11351127221
O                       2.12579015147   -2.09761398335   -0.11351238107
O                      -2.12578937395   -2.09761419059   -0.11351262991
O                       0.00000030369    2.09082416872   -2.21751149750
O                       0.00000030838   -2.09083755174   -2.21751161349
O                       2.09071006089   -0.00000660658   -2.23517653139
O                      -2.09070935908   -0.00000661050   -2.23517732270
Mg                     -2.09302783758    2.11662654520   -2.22405421688
Mg                      2.09302851728    2.11662636432   -2.22405335119
Mg                      2.09302833828   -2.11664009950   -2.22405174054
Mg                     -2.09302764919   -2.11664031850   -2.22405263869
O                       0.00000039642    4.22048592714   -0.07231724719
O                       0.00000039642   -4.22050112868   -0.07231724719
O                       4.22049405304   -0.00000660593   -0.12042758322
O                      -4.22049300278   -0.00000660593   -0.12042758322
O                       0.00000034146   -0.00000690624   -4.36254232956
Mg                     -2.12994500009    4.22048719744   -0.13059550202
Mg                      2.12994574482    4.22048717562   -0.13059632118
Mg                      2.12994574482   -4.22049988020   -0.13059632118
Mg                     -2.12994500009   -4.22049985838   -0.13059550202
Mg                     -4.22049300136    2.12974862664   -0.13880259387
Mg                      4.22049405445    2.12974862664   -0.13880259387
Mg                      4.22049404452   -2.12976230074   -0.13880142246
Mg                     -4.22049301130   -2.12976230074   -0.13880142246
O                      -2.10574242325    4.22048642583   -2.24288904296
O                       2.10574316499    4.22048641340   -2.24288874552
O                       2.10574316499   -4.22050064242   -2.24288874552
O                      -2.10574242325   -4.22050062998   -2.24288904296
O                      -4.22049316527    2.10565668942   -2.25484606183
O                       4.22049389054    2.10565668942   -2.25484606183
O                       4.22049388358   -2.10567082416   -2.25484618043
O                      -4.22049317224   -2.10567082416   -2.25484618043
O                      -2.11024642249    2.11023985771   -4.36254232956
O                       2.11024710542    2.11023985771   -4.36254232956
O                       2.11024710542   -2.11025367019   -4.36254232956
O                      -2.11024642249   -2.11025367019   -4.36254232956
O                      -4.22049315145    4.22048648813   -0.10484794635
O                       4.22049390437    4.22048648813   -0.10484794635
O                       4.22049390437   -4.22050056769   -0.10484794635
O                      -4.22049315145   -4.22050056769   -0.10484794635
O                      -6.31519705040    2.09760027931   -0.11351127221
O                       6.31519786532    2.09760044175   -0.11351137219
O                       6.31519768186   -2.09761419059   -0.11351262991
O                      -6.31519690435   -2.09761398335   -0.11351238107
O                      -2.12578937395    6.34337286522   -0.11351262991
O                       2.12579015147    6.34337307247   -0.11351238107
O                       2.12579000542   -6.34338677651   -0.11351127221
O                      -2.12578919050   -6.34338661407   -0.11351137219

ghost=serialno
4,5,6,7,8,9,10,11,12,13,14,15,16,17,18,19,20,21,22,23,24,25,26,27,28,29,30,31,32,33,34,35,36,37,38,39,40,41,42,43,44,45,46,47,48,49,50,51,52,53,54,55,56,57,58


 
 
 Checking keyword combinations...
 
 Keywords:
 
--------------------Output has been truncated-------------------------


--------------------Output has been truncated-------------------------


--------------------Output has been truncated-------------------------


--------------------Output has been truncated-------------------------


--------------------Output has been truncated-------------------------


--------------------Output has been truncated-------------------------


--------------------Output has been truncated-------------------------


--------------------Output has been truncated-------------------------


--------------------Output has been truncated-------------------------


--------------------Output has been truncated-------------------------


 
 Final local CC results:
 
 Minimum number of correlated electrons:        16       (100.0%)
 Maximum number of correlated electrons:        16       (100.0%)
 Average number of correlated electrons:        16.0     (100.0%)
 Minimum number of correlated orbitals:         88       (  3.6%)
 Maximum number of correlated orbitals:        104       (  4.2%)
 Average number of correlated orbitals:        100.0     (  4.1%)
 
 CPU time for integral calculations [min]:                  7.444
 Wall time for integral calculations [min]:                 0.985
 
 CPU time for SCF calculation [min]:                       84.826
 Wall time for SCF calculation [min]:                      11.091
 
 CPU time for orbital localization [min]:                   0.610
 Wall time for orbital localization [min]:                  0.543
 
 CPU time for integral transformations [min]:             104.035
 Wall time for integral transformations [min]:             16.260
 
 Reference energy [au]:                                  -187.598330060802
 
 LMP2 correlation energy [au]:                             -0.653560586492
 Total LMP2 energy [au]:                                 -188.251890647294
 
 Total MP2 correction for dropped NAFs [au]:               -0.000011237313
 Total MP2 correction [au]:                                -0.000720265731
 
 CPU time for CCSD calculations [min]:                      2.664
 Total CPU time for CCSD [min]:                           199.579
 Wall time for CCSD calculations [min]:                     0.338
 Total wall time for CCSD [min]:                           29.217
 
 CCSD correlation energy [au]:                             -0.632280694332
 Total CCSD energy [au]:                                 -188.230610755135
 CCSD correlation energy + 0.5 MP2 corrections [au]:       -0.632640827198
 Total LNO-CCSD energy with MP2 corrections [au]:        -188.230970888000
 
 CPU time for (T) corrections [min]:                        1.837
 Total CPU time for CCSD(T) [min]:                        201.416
 Wall time for (T) corrections [min]:                       0.237
 Total wall time for CCSD(T) [min]:                        29.453
 
 Total (T) correlation energy contribution [au]:           -0.038328361589
 Total (T) correlation energy+0.5 MP2 correction [au]:     -0.038688494454
 CCSD(T) correlation energy [au]:                          -0.670609055921
 Total CCSD(T) energy [au]:                              -188.268939116724
 CCSD(T) correlation energy + MP2 corrections [au]:        -0.671329321652
 Total LNO-CCSD(T) energy with MP2 corrections [au]:     -188.269659382454
 
 ======================================================================
 ======================================================================
 
 ************************ 2024-11-01 19:28:04 *************************
                      Normal termination of mrcc.
 **********************************************************************
