 vasp.6.3.0 20Jan22 (build Apr  1 2022 16:44:48) gamma-only                      
 executed on        HPECrayEX_GCC date 2023.02.22  04:25:46
 running  512 mpi-ranks, with    1 threads/rank
 distrk:  each k-point on  512 cores,    1 groups
 distr:  one band on NCORE=   8 cores,   64 groups


--------------------------------------------------------------------------------------------------------


 INCAR:
   SYSTEM = MgO-rocksalt
   ISMEAR = 0
   SIGMA = 0.05
   EDIFF = 1E-8
   ALGO = ALL
   ISTART = 0
   IBRION = 5
   POTIM = 0.01
   NFREE = 2
   ISYM = 0
   DIPOL = 0.5 0.5 0.5
   IDIPOL = 4
   LDIPOL = .TRUE.
   GGA = MK
   LUSE_VDW = .TRUE.
   PARAM1 = 0.1234
   PARAM2 = 0.711357
   ZAB_VDW = -1.8867
   AGGAC = 0.0
   ENCUT = 520
   PREC = Accurate
   LASPH = .TRUE.
   LREAL = Auto
   ISPIN = 1
   NELM = 200
   NELMIN = 8
   NCORE = 8
   KPAR = 1
   LWAVE = .FALSE.
   LCHARG = .FALSE.

 POTCAR:    PAW_PBE C 08Apr2002                   
 POTCAR:    PAW_PBE O 08Apr2002                   
 POTCAR:    PAW_PBE H 15Jun2001                   
 -----------------------------------------------------------------------------
|                                                                             |
|               ----> ADVICE to this user running VASP <----                  |
|                                                                             |
|     You have switched on vdW-DFT.                                           |
|     This routine was written and supplied by Jiri Klimes. We recommend      |
|     that you carefully read and cite the following publications:            |
|       J. Klimes, D.R. Bowler, A. Michelides                                 |
|          J. Phys.: Cond Matt. 22 022201 (2010)                              |
|       J. Klimes, D.R. Bowler, A. Michelides                                 |
|          Phys. Rev. B. 83, 195131 (2011)                                    |
|     and references therein.                                                 |
|                                                                             |
 -----------------------------------------------------------------------------

 POTCAR:    PAW_PBE C 08Apr2002                   
   SHA256 =  253f7b50bb8d59471dbedb8285d89021f4a42ed1a2c5d38a03a736e69125dd95 C/POTCAR              
   COPYR  = (c) Copyright 08Apr2002 Georg Kresse                                                    
   COPYR  = This file is part of the software VASP. Any use, copying, and all other rights are regul
   COPYR  = If you do not have a valid VASP license, you may not use, copy or distribute this file. 
   VRHFIN =C: s2p2                                                                                  
   LEXCH  = PE                                                                                      
   EATOM  =   147.1560 eV,   10.8157 Ry                                                             
                                                                                                    
   TITEL  = PAW_PBE C 08Apr2002                                                                     
   LULTRA =        F    use ultrasoft PP ?                                                          
   IUNSCR =        1    unscreen: 0-lin 1-nonlin 2-no                                               
   RPACOR =    1.200    partial core radius                                                         
   POMASS =   12.011; ZVAL   =    4.000    mass and valenz                                          
   RCORE  =    1.500    outmost cutoff radius                                                       
   RWIGS  =    1.630; RWIGS  =    0.863    wigner-seitz radius (au A)                               
   ENMAX  =  400.000; ENMIN  =  300.000 eV                                                          
   ICORE  =        2    local potential                                                             
   LCOR   =        T    correct aug charges                                                         
   LPAW   =        T    paw PP                                                                      
   EAUG   =  644.873                                                                                
   DEXC   =    0.000                                                                                
   RMAX   =    1.529    core radius for proj-oper                                                   
   RAUG   =    1.300    factor for augmentation sphere                                              
   RDEP   =    1.501    radius for radial grids                                                     
   RDEPT  =    1.300    core radius for aug-charge                                                  
                                                                                                    
   Atomic configuration                                                                             
    4 entries                                                                                       
     n  l   j            E        occ.                                                              
     1  0  0.50      -273.3789   2.0000                                                             
     2  0  0.50       -13.7508   2.0000                                                             
     2  1  0.50        -5.2854   2.0000                                                             
     3  2  1.50        -5.4423   0.0000                                                             
   Description                                                                                      
     l       E           TYP  RCUT    TYP  RCUT                                                     
     0    -13.7508458     23  1.200                                                                 
     0     -8.2022199     23  1.200                                                                 
     1     -5.2854383     23  1.500                                                                 
     1     34.0145650     23  1.500                                                                 
     2     -5.4423304      7  1.500                                                                 
  local pseudopotential read in
  partial core-charges read in
  partial kinetic energy density read in
  atomic valenz-charges read in
  non local Contribution for L=           0  read in
    real space projection operators read in
  non local Contribution for L=           0  read in
    real space projection operators read in
  non local Contribution for L=           1  read in
    real space projection operators read in
  non local Contribution for L=           1  read in
    real space projection operators read in
    PAW grid and wavefunctions read in

   number of l-projection  operators is LMAX  =           4
   number of lm-projection operators is LMMAX =           8

 POTCAR:    PAW_PBE O 08Apr2002                   
   SHA256 =  818f92134a0a090dccd8ba1447fa70422a3b330e708bb4f08108d8ae51209ddf O/POTCAR              
   COPYR  = (c) Copyright 08Apr2002 Georg Kresse                                                    
   COPYR  = This file is part of the software VASP. Any use, copying, and all other rights are regul
   COPYR  = If you do not have a valid VASP license, you may not use, copy or distribute this file. 
   VRHFIN =O: s2p4                                                                                  
   LEXCH  = PE                                                                                      
   EATOM  =   432.3788 eV,   31.7789 Ry                                                             
                                                                                                    
   TITEL  = PAW_PBE O 08Apr2002                                                                     
   LULTRA =        F    use ultrasoft PP ?                                                          
   IUNSCR =        1    unscreen: 0-lin 1-nonlin 2-no                                               
   RPACOR =    1.200    partial core radius                                                         
   POMASS =   16.000; ZVAL   =    6.000    mass and valenz                                          
   RCORE  =    1.520    outmost cutoff radius                                                       
   RWIGS  =    1.550; RWIGS  =    0.820    wigner-seitz radius (au A)                               
   ENMAX  =  400.000; ENMIN  =  300.000 eV                                                          
   ICORE  =        2    local potential                                                             
   LCOR   =        T    correct aug charges                                                         
   LPAW   =        T    paw PP                                                                      
   EAUG   =  605.392                                                                                
   DEXC   =    0.000                                                                                
   RMAX   =    1.553    core radius for proj-oper                                                   
   RAUG   =    1.300    factor for augmentation sphere                                              
   RDEP   =    1.550    radius for radial grids                                                     
   RDEPT  =    1.329    core radius for aug-charge                                                  
                                                                                                    
   Atomic configuration                                                                             
    4 entries                                                                                       
     n  l   j            E        occ.                                                              
     1  0  0.50      -514.6923   2.0000                                                             
     2  0  0.50       -23.9615   2.0000                                                             
     2  1  0.50        -9.0305   4.0000                                                             
     3  2  1.50        -9.5241   0.0000                                                             
   Description                                                                                      
     l       E           TYP  RCUT    TYP  RCUT                                                     
     0    -23.9615318     23  1.200                                                                 
     0     -9.5240782     23  1.200                                                                 
     1     -9.0304911     23  1.520                                                                 
     1      8.1634956     23  1.520                                                                 
     2     -9.5240782      7  1.500                                                                 
  local pseudopotential read in
  partial core-charges read in
  partial kinetic energy density read in
  kinetic energy density of atom read in
  atomic valenz-charges read in
  non local Contribution for L=           0  read in
    real space projection operators read in
  non local Contribution for L=           0  read in
    real space projection operators read in
  non local Contribution for L=           1  read in
    real space projection operators read in
  non local Contribution for L=           1  read in
    real space projection operators read in
    PAW grid and wavefunctions read in

   number of l-projection  operators is LMAX  =           4
   number of lm-projection operators is LMMAX =           8

 POTCAR:    PAW_PBE H 15Jun2001                   
   SHA256 =  030f79b5d3ab3cf0e668861823c8fb652ff669f3e15e46930bd03bfd63a607b6 H/POTCAR              
   COPYR  = (c) Copyright 15Jun2001 Georg Kresse                                                    
   COPYR  = This file is part of the software VASP. Any use, copying, and all other rights are regul
   COPYR  = If you do not have a valid VASP license, you may not use, copy or distribute this file. 
   VRHFIN =H: ultrasoft test                                                                        
   LEXCH  = PE                                                                                      
   EATOM  =    12.4884 eV,    0.9179 Ry                                                             
                                                                                                    
   TITEL  = PAW_PBE H 15Jun2001                                                                     
   LULTRA =        F    use ultrasoft PP ?                                                          
   IUNSCR =        0    unscreen: 0-lin 1-nonlin 2-no                                               
   RPACOR =    0.000    partial core radius                                                         
   POMASS =    1.000; ZVAL   =    1.000    mass and valenz                                          
   RCORE  =    1.100    outmost cutoff radius                                                       
   RWIGS  =    0.700; RWIGS  =    0.370    wigner-seitz radius (au A)                               
   ENMAX  =  250.000; ENMIN  =  200.000 eV                                                          
   RCLOC  =    0.701    cutoff for local pot                                                        
   LCOR   =        T    correct aug charges                                                         
   LPAW   =        T    paw PP                                                                      
   EAUG   =  400.000                                                                                
   RMAX   =    1.123    core radius for proj-oper                                                   
   RAUG   =    1.200    factor for augmentation sphere                                              
   RDEP   =    1.112    radius for radial grids                                                     
   RDEPT  =    0.926    core radius for aug-charge                                                  
                                                                                                    
   Atomic configuration                                                                             
    2 entries                                                                                       
     n  l   j            E        occ.                                                              
     1  0  0.50        -6.4927   1.0000                                                             
     2  1  0.50        -3.4015   0.0000                                                             
   Description                                                                                      
     l       E           TYP  RCUT    TYP  RCUT                                                     
     0     -6.4927494     23  1.100                                                                 
     0      6.8029130     23  1.100                                                                 
     1     -4.0817478     23  1.100                                                                 
  local pseudopotential read in
  atomic valenz-charges read in
  non local Contribution for L=           0  read in
    real space projection operators read in
  non local Contribution for L=           0  read in
    real space projection operators read in
  non local Contribution for L=           1  read in
    real space projection operators read in
    PAW grid and wavefunctions read in

   number of l-projection  operators is LMAX  =           3
   number of lm-projection operators is LMMAX =           5

 -----------------------------------------------------------------------------
|                                                                             |
|               ----> ADVICE to this user running VASP <----                  |
|                                                                             |
|     You have a (more or less) 'small supercell' and for smaller cells       |
|     it is recommended to use the reciprocal-space projection scheme!        |
|     The real-space optimization is not efficient for small cells and it     |
|     is also less accurate ...                                               |
|     Therefore, set LREAL=.FALSE. in the INCAR file.                         |
|                                                                             |
 -----------------------------------------------------------------------------

 Optimization of the real space projectors (new method)

 maximal supplied QI-value         = 25.13
 optimisation between [QCUT,QGAM] = [ 11.56, 23.12] = [ 37.43,149.72] Ry 
 Optimized for a Real-space Cutoff    1.04 Angstroem

   l    n(q)    QCUT    max X(q) W(low)/X(q) W(high)/X(q)  e(spline) 
   0      7    11.561   115.676    0.20E-03    0.60E-03    0.21E-06
   0      7    11.561    87.132    0.20E-03    0.59E-03    0.21E-06
   1      7    11.561     4.429    0.23E-03    0.35E-03    0.15E-06
   1      7    11.561     2.733    0.18E-03    0.25E-03    0.12E-06
 Optimization of the real space projectors (new method)

 maximal supplied QI-value         = 24.76
 optimisation between [QCUT,QGAM] = [ 11.64, 23.27] = [ 37.91,151.63] Ry 
 Optimized for a Real-space Cutoff    1.14 Angstroem

   l    n(q)    QCUT    max X(q) W(low)/X(q) W(high)/X(q)  e(spline) 
   0      8    11.635    20.381    0.10E-03    0.33E-03    0.24E-06
   0      8    11.635    15.268    0.11E-03    0.35E-03    0.26E-06
   1      7    11.635     5.964    0.24E-03    0.31E-03    0.30E-06
   1      7    11.635     5.382    0.22E-03    0.25E-03    0.26E-06
 Optimization of the real space projectors (new method)

 maximal supplied QI-value         = 34.20
 optimisation between [QCUT,QGAM] = [ 11.63, 23.26] = [ 37.87,151.49] Ry 
 Optimized for a Real-space Cutoff    1.21 Angstroem

   l    n(q)    QCUT    max X(q) W(low)/X(q) W(high)/X(q)  e(spline) 
   0      8    11.629    19.460    0.17E-03    0.34E-03    0.21E-06
   0      8    11.629    12.209    0.16E-03    0.33E-03    0.21E-06
   1      8    11.629     4.655    0.18E-03    0.16E-03    0.26E-06
 -----------------------------------------------------------------------------
|                                                                             |
|               ----> ADVICE to this user running VASP <----                  |
|                                                                             |
|     You enforced a specific xc type in the INCAR file but a different       |
|     type was found in the POTCAR file.                                      |
|     I HOPE YOU KNOW WHAT YOU ARE DOING!                                     |
|                                                                             |
 -----------------------------------------------------------------------------

  PAW_PBE C 08Apr2002                   :
 energy of atom  1       EATOM= -147.1560
 kinetic energy error for atom=    0.0071 (will be added to EATOM!!)
  PAW_PBE O 08Apr2002                   :
 energy of atom  2       EATOM= -432.3788
 kinetic energy error for atom=    0.0208 (will be added to EATOM!!)
  PAW_PBE H 15Jun2001                   :
 energy of atom  3       EATOM=  -12.4884
 kinetic energy error for atom=    0.0014 (will be added to EATOM!!)


 POSCAR:  C  O  H
  positions in direct lattice
  No initial velocities read in
 exchange correlation table for  LEXCH =       43
   RHO(1)=    0.500       N(1)  =     2000
   RHO(2)=  100.500       N(2)  =     4000



--------------------------------------------------------------------------------------------------------


 ion  position               nearest neighbor table
   1  0.503  0.530  0.500-   3 1.10   5 1.10   6 1.10   2 1.43
   2  0.503  0.465  0.500-   4 0.97   1 1.43
   3  0.455  0.543  0.500-   1 1.10
   4  0.545  0.451  0.500-   2 0.97
   5  0.525  0.548  0.541-   1 1.10
   6  0.525  0.548  0.459-   1 1.10


IMPORTANT INFORMATION: All symmetrisations will be switched off!
NOSYMM: (Re-)initialisation of all symmetry stuff for point group C_1.


----------------------------------------------------------------------------------------

                                     Primitive cell                                     

  volume of cell :   10591.2532

  direct lattice vectors                    reciprocal lattice vectors
    21.971529000  0.000000000  0.000000000     0.045513446  0.000000000  0.000000000
     0.000000000 22.128834000  0.000000000     0.000000000  0.045189909  0.000000000
     0.000000000  0.000000000 21.783544000     0.000000000  0.000000000  0.045906213

  length of vectors
    21.971529000 22.128834000 21.783544000     0.045513446  0.045189909  0.045906213

  position of ions in fractional coordinates (direct lattice)
     0.502674358  0.529508455  0.499999999
     0.503013427  0.464830345  0.499999997
     0.454734440  0.543382104  0.500000001
     0.545050267  0.451033794  0.500000001
     0.524775494  0.548375985  0.541278955
     0.524775495  0.548375991  0.458721046

  ion indices of the primitive-cell ions
   primitive index   ion index
                 1           1
                 2           2
                 3           3
                 4           4
                 5           5
                 6           6

----------------------------------------------------------------------------------------



 KPOINTS: pymatgen v2020.8.13 with grid density = 

Automatic generation of k-mesh.
 Grid dimensions read from file:
 generate k-points for:    1    1    1

 Generating k-lattice:

  Cartesian coordinates                     Fractional coordinates (reciprocal lattice)
     0.045513446  0.000000000  0.000000000     1.000000000  0.000000000  0.000000000
     0.000000000  0.045189909  0.000000000     0.000000000  1.000000000  0.000000000
     0.000000000  0.000000000  0.045906213     0.000000000  0.000000000  1.000000000

  Length of vectors
     0.045513446  0.045189909  0.045906213

  Shift w.r.t. Gamma in fractional coordinates (k-lattice)
     0.000000000  0.000000000  0.000000000

 
 Subroutine IBZKPT returns following result:
 ===========================================
 
 Found      1 irreducible k-points:
 
 Following reciprocal coordinates:
            Coordinates               Weight
  0.000000  0.000000  0.000000      1.000000
 
 Following cartesian coordinates:
            Coordinates               Weight
  0.000000  0.000000  0.000000      1.000000
 
 
 Subroutine IBZKPT_HF returns following result:
 ==============================================
 
 Found      1 k-points in 1st BZ
 the following      1 k-points will be used (e.g. in the exchange kernel)
 Following reciprocal coordinates:   # in IRBZ
  0.000000  0.000000  0.000000    1.00000000   1 t-inv F


--------------------------------------------------------------------------------------------------------




 Dimension of arrays:
   k-points           NKPTS =      1   k-points in BZ     NKDIM =      1   number of bands    NBANDS=     64
   number of dos      NEDOS =    301   number of ions     NIONS =      6
   non local maximal  LDIM  =      4   non local SUM 2l+1 LMDIM =      8
   total plane-waves  NPLWV = ******
   max r-space proj   IRMAX =   3259   max aug-charges    IRDMAX=   5800
   dimension x,y,z NGX =   168 NGY =  168 NGZ =  162
   dimension x,y,z NGXF=   336 NGYF=  336 NGZF=  324
   support grid    NGXF=   336 NGYF=  336 NGZF=  324
   ions per type =               1   1   4
   NGX,Y,Z   is equivalent  to a cutoff of  12.71, 12.62, 12.36 a.u.
   NGXF,Y,Z  is equivalent  to a cutoff of  25.42, 25.24, 24.73 a.u.

 SYSTEM =  MgO-rocksalt                            
 POSCAR =   C  O  H                                

--------------------------------------------------------------------------------------------------------


  energy-cutoff  :      520.00
  volume of cell :    10591.25
      direct lattice vectors                 reciprocal lattice vectors
    21.971529000  0.000000000  0.000000000     0.045513446  0.000000000  0.000000000
     0.000000000 22.128834000  0.000000000     0.000000000  0.045189909  0.000000000
     0.000000000  0.000000000 21.783544000     0.000000000  0.000000000  0.045906213

  length of vectors
    21.971529000 22.128834000 21.783544000     0.045513446  0.045189909  0.045906213



 k-points in units of 2pi/SCALE and weight: pymatgen v2020.8.13 with grid density = 
   0.00000000  0.00000000  0.00000000       1.000

 k-points in reciprocal lattice and weights: pymatgen v2020.8.13 with grid density = 
   0.00000000  0.00000000  0.00000000       1.000

 position of ions in fractional coordinates (direct lattice) 
   0.50267436  0.52950845  0.50000000
   0.50301343  0.46483035  0.50000000
   0.45473444  0.54338210  0.50000000
   0.54505027  0.45103379  0.50000000
   0.52477549  0.54837599  0.54127895
   0.52477549  0.54837599  0.45872105

 position of ions in cartesian coordinates  (Angst):
  11.04452424 11.71740470 10.89177198
  11.05197411 10.28615355 10.89177194
   9.99121094 12.02441237 10.89177202
  11.97558774  9.98085196 10.89177203
  11.53011998 12.13492115 11.79097393
  11.53012000 12.13492127  9.99257010



--------------------------------------------------------------------------------------------------------


--------------------------------------- Iteration      FINAL  ---------------------------------------


--------------------OUTCAR has been truncated-------------------------


--------------------OUTCAR has been truncated-------------------------


--------------------OUTCAR has been truncated-------------------------


--------------------OUTCAR has been truncated-------------------------


--------------------OUTCAR has been truncated-------------------------


--------------------OUTCAR has been truncated-------------------------


--------------------OUTCAR has been truncated-------------------------


--------------------OUTCAR has been truncated-------------------------


--------------------OUTCAR has been truncated-------------------------


--------------------OUTCAR has been truncated-------------------------


  FORCE on cell =-STRESS in cart. coord.  units (eV):
  Direction    XX          YY          ZZ          XY          YZ          ZX
  --------------------------------------------------------------------------------------
  Alpha Z     0.07064     0.07064     0.07064
  Ewald     124.56822   336.43877    38.64317   -43.10551     0.08769     0.17962
  Hartree   296.91132   451.29775   281.62697   -12.86058    -0.10971    -0.04258
  E(xc)     -57.13048   -57.41462   -57.47435    -0.09631     0.00044     0.00019
  Local    -554.47099  -921.97178  -478.51976    47.48293     0.09642    -0.04960
  n-local   -41.74858   -38.15632   -41.94228    -0.36148    -0.00780    -0.01042
  augment     6.45009     6.17469     8.22320     0.54080    -0.00082    -0.00085
  Kinetic   225.23584   223.42019   249.06586     8.37905     0.00217     0.01615
  Fock        0.00000     0.00000     0.00000     0.00000     0.00000     0.00000
  -------------------------------------------------------------------------------------
  Total      -0.11394    -0.14068    -0.30656    -0.02110     0.06839     0.09251
  in kB      -0.01724    -0.02128    -0.04637    -0.00319     0.01035     0.01399
  external pressure =       -0.03 kB  Pullay stress =        0.00 kB


 VOLUME and BASIS-vectors are now :
 -----------------------------------------------------------------------------
  energy-cutoff  :      520.00
  volume of cell :    10591.25
      direct lattice vectors                 reciprocal lattice vectors
    21.971529000  0.000000000  0.000000000     0.045513446  0.000000000  0.000000000
     0.000000000 22.128834000  0.000000000     0.000000000  0.045189909  0.000000000
     0.000000000  0.000000000 21.783544000     0.000000000  0.000000000  0.045906213

  length of vectors
    21.971529000 22.128834000 21.783544000     0.045513446  0.045189909  0.045906213


 FORCES acting on ions:
    Electron-Ion                     Ewald-Force                    Non-Local-Force
 -----------------------------------------------------------------------------------------------
   0.287E+01 -.127E+03 0.316E+00   -.306E+01 0.133E+03 -.423E+00   0.276E+00 -.565E+01 -.926E-01
   0.445E+02 0.166E+03 -.587E-01   -.837E+02 -.191E+03 0.409E-01   0.392E+02 0.255E+02 0.250E-01
   0.601E+02 -.302E+02 -.670E-02   -.657E+02 0.318E+02 0.581E-02   0.555E+01 -.163E+01 0.131E-02
   -.880E+02 0.446E+02 -.589E-02   0.958E+02 -.475E+02 0.601E-02   -.778E+01 0.292E+01 0.364E-03
   -.261E+02 -.352E+02 -.498E+02   0.286E+02 0.374E+02 0.543E+02   -.241E+01 -.214E+01 -.457E+01
   -.258E+02 -.349E+02 0.497E+02   0.281E+02 0.369E+02 -.540E+02   -.234E+01 -.207E+01 0.449E+01
 -----------------------------------------------------------------------------------------------
   -.325E+02 -.169E+02 0.149E+00   -.249E-13 0.000E+00 0.000E+00   0.325E+02 0.169E+02 -.149E+00


 POSITION                                       TOTAL-FORCE (eV/Angst)
 -----------------------------------------------------------------------------------
     11.04452     11.71740     10.89177         0.085909      0.050473     -0.198382
     11.05197     10.28615     10.89177        -0.006324      0.008096      0.007180
      9.99121     12.02441     10.89177        -0.010217     -0.006320      0.000399
     11.97559      9.98085     10.89177        -0.001759     -0.001004      0.000461
     11.53012     12.13492     11.79097         0.017166      0.012033     -0.016414
     11.53012     12.13492      9.98257        -0.084774     -0.063278      0.206757
 -----------------------------------------------------------------------------------
    total drift:                                0.003954     -0.005905      0.000184


--------------------------------------------------------------------------------------------------------



  FREE ENERGIE OF THE ION-ELECTRON SYSTEM (eV)
  ---------------------------------------------------
  free  energy   TOTEN  =       -27.31214508 eV

  energy  without entropy=      -27.31214508  energy(sigma->0) =      -27.31214508

 d Force = 0.1470230E-03[-0.414E-02, 0.443E-02]  d Energy = 0.9140240E-04 0.556E-04
 d Force = 0.1087561E+01[ 0.108E+01, 0.110E+01]  d Ewald  = 0.1087546E+01 0.145E-04


--------------------------------------------------------------------------------------------------------


    POTLOK:  cpu time      1.5377: real time      1.5379


--------------------------------------------------------------------------------------------------------


 Finite differences progress:
  Degree of freedom:  18/ 18
  Displacement:        2/  2
  Total:              36/ 36

 SECOND DERIVATIVES (NOT SYMMETRIZED)
 ------------------------------------
               1X          1Y          1Z          2X          2Y          2Z          3X          3Y          3Z          4X          4Y          4Z          5X          5Y          5Z          6X          6Y          6Z 
  1X   -54.433734    0.947952    0.000059    8.177670    2.077730   -0.000012   27.583060   -4.917906   -0.000012    0.100045   -4.135337   -0.000012    9.286479    3.013780    8.478672    9.286480    3.013781   -8.478695
  1Y     0.939951  -40.475785    0.000104   -2.308890   20.529728   -0.000020   -6.085106    5.259364   -0.000021    0.866455    1.847069   -0.000020    3.293795    6.419811    5.981656    3.293795    6.419813   -5.981699
  1Z    -0.000153   -0.009670  -50.535095    0.004531    0.008929    5.358440    0.002289   -0.000730    4.538013   -0.007766    0.003690    0.148274    8.371806    5.787788   20.244221   -8.370707   -5.790007   20.246146
  2X     8.226690   -2.286446   -0.005241  -50.684727   12.726520    0.000819   -0.267225   -3.581200    0.001487   43.613556   -9.579824    0.000719   -0.444268    1.360805   -0.301859   -0.444026    1.360144    0.304076
  2Y     2.089677   20.636391    0.000009   12.801170  -36.197090    0.000003   -0.412079    2.144797   -0.000002  -14.704030    7.298503   -0.000004    0.112631    3.058699    0.441064    0.112631    3.058699   -0.441069
  2Z     0.000091   -0.002755    5.301038    0.000208    0.002015   -3.748698    0.000163    0.000044   -0.196041   -0.000627    0.000989    0.187172   -0.202627    2.563164   -0.771796    0.202793   -2.563457   -0.771675
  3X    27.618315   -6.077019   -0.003704   -0.281987   -0.403279    0.003298  -29.383841    6.773133   -0.000579   -0.255574    0.128125    0.001493    1.151658   -0.210522   -0.063421    1.151429   -0.210437    0.062913
  3Y    -4.891333    5.355696    0.000001   -3.593738    2.140249    0.000000    6.770568   -7.417744   -0.000001   -0.083022    0.719436   -0.000000    0.898762   -0.398819   -0.090387    0.898762   -0.398819    0.090386
  3Z     0.004023   -0.001018    4.523266    0.000717    0.001735   -0.157054   -0.000484   -0.001262   -4.228678   -0.003163    0.000711   -0.031023    2.443430   -0.591695   -0.054053   -2.444523    0.591529   -0.052458
  4X     0.136511    0.882952    0.000039   43.604636  -14.711214    0.001455   -0.254627   -0.083333    0.001395  -43.363426   13.605841   -0.000910   -0.061380    0.152846   -0.016094   -0.061713    0.152907    0.014114
  4Y    -4.117150    1.940296   -0.000005   -9.576324    7.297069   -0.000001    0.127402    0.717960    0.000001   13.587697   -9.715862    0.000002   -0.010813   -0.119732    0.088021   -0.010813   -0.119732   -0.088018
  4Z    -0.000759   -0.002991    0.135174    0.001554    0.001930    0.194633    0.000497    0.000159   -0.025248   -0.000899    0.000502   -0.219955   -0.127386    0.019827   -0.042644    0.126993   -0.019427   -0.041961
  5X     9.327065    3.309800    8.365328   -0.452491    0.123057   -0.195436    1.154729    0.897493    2.443984   -0.060516   -0.012892   -0.128776   -9.309944   -3.885810   -9.294702   -0.658843   -0.431649   -1.190398
  5Y     3.023977    6.512037    5.771483    1.349303    3.056404    2.563647   -0.211061   -0.399304   -0.588700    0.149911   -0.117701    0.023053   -3.880485   -8.489882   -7.098228   -0.431645   -0.561554   -0.671254
  5Z     8.485923    5.993714   20.235095   -0.305954    0.440773   -0.728582   -0.059740   -0.090740   -0.050233   -0.012413    0.086907   -0.047938   -9.296534   -7.104658  -21.412799    1.188717    0.674004    2.004458
  6X     9.326667    3.311901   -8.365134   -0.452028    0.121930    0.200283    1.153851    0.897462   -2.444823   -0.059483   -0.014154    0.126740   -0.660031   -0.431647    1.189144   -9.308977   -3.885492    9.293791
  6Y     3.026198    6.513965   -5.778316    1.348893    3.055377   -2.565681   -0.211966   -0.399954    0.590000    0.150156   -0.118326   -0.020879   -0.431644   -0.561971    0.673602   -3.881638   -8.489091    7.101274
  6Z    -8.486903   -5.988793   20.232601    0.304683   -0.440500   -0.726854    0.061833    0.089395   -0.050831    0.016186   -0.089398   -0.047351   -1.190928   -0.675346    2.003265    9.295129    7.104642  -21.410830


 Eigenvectors and eigenvalues of the dynamical matrix
 ----------------------------------------------------


   1 f  =  111.767062 THz   702.253160 2PiTHz 3728.147882 cm-1   462.231218 meV
             X         Y         Z           dx          dy          dz
     11.044524 11.717405 10.891772     0.008983    0.003846   -0.000031  
     11.051974 10.286154 10.891772     0.225603   -0.084853    0.000002  
      9.991211 12.024412 10.891772    -0.015587    0.001350   -0.000020  
     11.975588  9.980852 10.891772    -0.916694    0.318134   -0.000018  
     11.530120 12.134921 11.790974    -0.000714    0.003271   -0.001031  
     11.530120 12.134921  9.992570    -0.000723    0.003265    0.001084  

   2 f  =   90.955668 THz   571.491315 2PiTHz 3033.954500 cm-1   376.162247 meV
             X         Y         Z           dx          dy          dz
     11.044524 11.717405 10.891772    -0.293364    0.036685    0.000124  
     11.051974 10.286154 10.891772     0.006506    0.000615   -0.000011  
      9.991211 12.024412 10.891772     0.890342   -0.246905    0.000031  
     11.975588  9.980852 10.891772    -0.017587   -0.002592   -0.000026  
     11.530120 12.134921 11.790974     0.059066    0.059936    0.148686  
     11.530120 12.134921  9.992570     0.059325    0.060134   -0.149122  

   3 f  =   88.660229 THz   557.068651 2PiTHz 2957.386921 cm-1   366.669081 meV
             X         Y         Z           dx          dy          dz
     11.044524 11.717405 10.891772    -0.000197   -0.000104   -0.308890  
     11.051974 10.286154 10.891772    -0.000014   -0.000000    0.001421  
      9.991211 12.024412 10.891772     0.000149   -0.000048   -0.028101  
     11.975588  9.980852 10.891772     0.000036   -0.000007    0.004086  
     11.530120 12.134921 11.790974     0.313002    0.239989    0.545111  
     11.530120 12.134921  9.992570    -0.312432   -0.239628    0.544089  

   4 f  =   87.265507 THz   548.305349 2PiTHz 2910.863977 cm-1   360.900974 meV
             X         Y         Z           dx          dy          dz
     11.044524 11.717405 10.891772     0.093829    0.139901   -0.000260  
     11.051974 10.286154 10.891772    -0.001288    0.011098   -0.000003  
      9.991211 12.024412 10.891772     0.262397   -0.068851   -0.000038  
     11.975588  9.980852 10.891772    -0.002701    0.004676   -0.000016  
     11.530120 12.134921 11.790974    -0.289886   -0.232986   -0.556684  
     11.530120 12.134921  9.992570    -0.290412   -0.233406    0.557536  

   5 f  =   43.774231 THz   275.041608 2PiTHz 1460.151190 cm-1   181.035593 meV
             X         Y         Z           dx          dy          dz
     11.044524 11.717405 10.891772    -0.140433   -0.073901    0.000368  
     11.051974 10.286154 10.891772    -0.077978   -0.025626   -0.000003  
      9.991211 12.024412 10.891772    -0.105257   -0.330064   -0.001070  
     11.975588  9.980852 10.891772     0.025623    0.116986    0.000018  
     11.530120 12.134921 11.790974     0.440687    0.287243   -0.374938  
     11.530120 12.134921  9.992570     0.439507    0.287878    0.374678  

   6 f  =   43.439922 THz   272.941082 2PiTHz 1448.999841 cm-1   179.653003 meV
             X         Y         Z           dx          dy          dz
     11.044524 11.717405 10.891772     0.000283    0.000094    0.200584  
     11.051974 10.286154 10.891772     0.000118    0.000040    0.033621  
      9.991211 12.024412 10.891772     0.000165    0.000399   -0.710021  
     11.975588  9.980852 10.891772    -0.000036   -0.000191    0.009912  
     11.530120 12.134921 11.790974     0.386625   -0.270385   -0.064447  
     11.530120 12.134921  9.992570    -0.388076    0.269745   -0.065587  

   7 f  =   42.787652 THz   268.842746 2PiTHz 1427.242443 cm-1   176.955430 meV
             X         Y         Z           dx          dy          dz
     11.044524 11.717405 10.891772    -0.044604    0.325589   -0.000076  
     11.051974 10.286154 10.891772    -0.008950    0.083087    0.000016  
      9.991211 12.024412 10.891772    -0.188570   -0.564048   -0.000005  
     11.975588  9.980852 10.891772    -0.004762    0.016441    0.000173  
     11.530120 12.134921 11.790974     0.191857   -0.462536    0.122121  
     11.530120 12.134921  9.992570     0.191844   -0.462212   -0.122105  

   8 f  =   39.757699 THz   249.804990 2PiTHz 1326.174088 cm-1   164.424557 meV
             X         Y         Z           dx          dy          dz
     11.044524 11.717405 10.891772    -0.380278    0.079521    0.000008  
     11.051974 10.286154 10.891772     0.281246    0.074559    0.000008  
      9.991211 12.024412 10.891772    -0.013704    0.355754    0.000031  
     11.975588  9.980852 10.891772    -0.181450   -0.692109    0.000039  
     11.530120 12.134921 11.790974     0.195487   -0.120823   -0.100540  
     11.530120 12.134921  9.992570     0.195302   -0.120626    0.100513  

   9 f  =   33.955984 THz   213.351739 2PiTHz 1132.649704 cm-1   140.430602 meV
             X         Y         Z           dx          dy          dz
     11.044524 11.717405 10.891772    -0.000322   -0.000769   -0.418550  
     11.051974 10.286154 10.891772    -0.000055    0.000360    0.215070  
      9.991211 12.024412 10.891772     0.000201    0.000775    0.247797  
     11.975588  9.980852 10.891772     0.000287    0.000954    0.009100  
     11.530120 12.134921 11.790974    -0.045515   -0.573792    0.166050  
     11.530120 12.134921  9.992570     0.046213    0.573039    0.166377  

  10 f  =   31.423215 THz   197.437885 2PiTHz 1048.165639 cm-1   129.955918 meV
             X         Y         Z           dx          dy          dz
     11.044524 11.717405 10.891772    -0.215564   -0.394763    0.000815  
     11.051974 10.286154 10.891772     0.028861    0.263287   -0.000521  
      9.991211 12.024412 10.891772     0.093530    0.415487   -0.000539  
     11.975588  9.980852 10.891772     0.153468    0.512401    0.000039  
     11.530120 12.134921 11.790974     0.195898   -0.298750   -0.043816  
     11.530120 12.134921  9.992570     0.195713   -0.300551    0.043283  

  11 f  =   30.029620 THz   188.681669 2PiTHz 1001.680313 cm-1   124.192475 meV
             X         Y         Z           dx          dy          dz
     11.044524 11.717405 10.891772    -0.116277    0.571795    0.000191  
     11.051974 10.286154 10.891772    -0.001689   -0.641337   -0.000024  
      9.991211 12.024412 10.891772     0.030156    0.350466    0.000064  
     11.975588  9.980852 10.891772     0.154415    0.272348    0.000168  
     11.530120 12.134921 11.790974     0.112761   -0.021857   -0.007701  
     11.530120 12.134921  9.992570     0.112577   -0.021810    0.007719  

  12 f  =    8.521516 THz    53.542263 2PiTHz  284.247170 cm-1    35.242142 meV
             X         Y         Z           dx          dy          dz
     11.044524 11.717405 10.891772    -0.000795    0.000497   -0.010307  
     11.051974 10.286154 10.891772     0.000402    0.000307    0.234421  
      9.991211 12.024412 10.891772    -0.000308   -0.000082   -0.284941  
     11.975588  9.980852 10.891772     0.000210    0.000318   -0.861596  
     11.530120 12.134921 11.790974    -0.220445    0.028009    0.106836  
     11.530120 12.134921  9.992570     0.220045   -0.027796    0.106831  

  13 f  =    0.873492 THz     5.488313 2PiTHz   29.136561 cm-1     3.612472 meV
             X         Y         Z           dx          dy          dz
     11.044524 11.717405 10.891772     0.025581   -0.002767    0.807415  
     11.051974 10.286154 10.891772     0.036336   -0.002963    0.306192  
      9.991211 12.024412 10.891772     0.006983   -0.002159    0.310378  
     11.975588  9.980852 10.891772     0.009412    0.000314    0.009847  
     11.530120 12.134921 11.790974     0.043773   -0.098306    0.258531  
     11.530120 12.134921  9.992570    -0.030168    0.097957    0.258531  

  14 f  =    0.745994 THz     4.687221 2PiTHz   24.883696 cm-1     3.085184 meV
             X         Y         Z           dx          dy          dz
     11.044524 11.717405 10.891772     0.072367    0.226294   -0.027183  
     11.051974 10.286154 10.891772     0.853702    0.264159   -0.011441  
      9.991211 12.024412 10.891772    -0.020585   -0.077027   -0.007293  
     11.975588  9.980852 10.891772     0.254569    0.190295   -0.002575  
     11.530120 12.134921 11.790974    -0.033938    0.133405   -0.009917  
     11.530120 12.134921  9.992570    -0.036580    0.127190   -0.010056  

  15 f/i=    0.098026 THz     0.615918 2PiTHz    3.269810 cm-1     0.405405 meV
             X         Y         Z           dx          dy          dz
     11.044524 11.717405 10.891772     0.316167   -0.529169   -0.019217  
     11.051974 10.286154 10.891772     0.351660   -0.608306   -0.021061  
      9.991211 12.024412 10.891772     0.092253   -0.148893   -0.009331  
     11.975588  9.980852 10.891772     0.087552   -0.153176   -0.002537  
     11.530120 12.134921 11.790974     0.088850   -0.152498   -0.004150  
     11.530120 12.134921  9.992570     0.095194   -0.152839   -0.003683  

  16 f/i=    0.948313 THz     5.958427 2PiTHz   31.632321 cm-1     3.921906 meV
             X         Y         Z           dx          dy          dz
     11.044524 11.717405 10.891772     0.755421    0.217219   -0.006661  
     11.051974 10.286154 10.891772    -0.095745    0.242935   -0.054121  
      9.991211 12.024412 10.891772     0.269179    0.238630    0.006147  
     11.975588  9.980852 10.891772    -0.076085   -0.096619   -0.020695  
     11.530120 12.134921 11.790974     0.292044   -0.026892   -0.000690  
     11.530120 12.134921  9.992570     0.282551   -0.012407   -0.001572  

  17 f/i=    1.267686 THz     7.965105 2PiTHz   42.285448 cm-1     5.242725 meV
             X         Y         Z           dx          dy          dz
     11.044524 11.717405 10.891772     0.043305    0.007665   -0.105599  
     11.051974 10.286154 10.891772     0.001925    0.008495    0.695097  
      9.991211 12.024412 10.891772     0.015096    0.011055   -0.365929  
     11.975588  9.980852 10.891772    -0.002105   -0.005691    0.457688  
     11.530120 12.134921 11.790974    -0.232420    0.124501    0.044975  
     11.530120 12.134921  9.992570     0.264387   -0.128232    0.044986  

  18 f/i=    2.176935 THz    13.678085 2PiTHz   72.614732 cm-1     9.003075 meV
             X         Y         Z           dx          dy          dz
     11.044524 11.717405 10.891772     0.018763   -0.002542   -0.157604  
     11.051974 10.286154 10.891772    -0.000969   -0.002965    0.563243  
      9.991211 12.024412 10.891772     0.006624    0.003445    0.349383  
     11.975588  9.980852 10.891772    -0.001426   -0.004284   -0.217802  
     11.530120 12.134921 11.790974     0.379168    0.116933   -0.301914  
     11.530120 12.134921  9.992570    -0.365009   -0.122326   -0.301959  

 Finite differences POTIM=   1.0000000000000000E-002
     LOOP+:  cpu time     46.8413: real time     46.9522
    4ORBIT:  cpu time      0.0000: real time      0.0000

 total amount of memory used by VASP MPI-rank0    76458. kBytes
=======================================================================

   base      :      30000. kBytes
   nonlr-proj:        124. kBytes
   fftplans  :      15558. kBytes
   grid      :      29917. kBytes
   one-center:          1. kBytes
   wavefun   :        858. kBytes

  
  
 General timing and accounting informations for this job:
 ========================================================
  
                  Total CPU time used (sec):     1881.384
                            User time (sec):     1878.009
                          System time (sec):        3.375
                         Elapsed time (sec):     1897.671
  
                   Maximum memory used (kb):      337572.
                   Average memory used (kb):          N/A
  
                          Minor page faults:        27591
                          Major page faults:            0
                 Voluntary context switches:        32317
