 vasp.6.4.2 20Jul23 (build Feb 22 2024 13:53:45) complex                         
 executed on              LinuxNV date 2024.08.27  17:52:47
 running    4 mpi-ranks, with    1 threads/rank, on    1 nodes
 distrk:  each k-point on    4 cores,    1 groups
 distr:  one band on NCORE=   1 cores,    4 groups
 OpenACC runtime initialized ...    4 GPUs detected


--------------------------------------------------------------------------------------------------------


 INCAR:
   SYSTEM = Oxide-Surface
   ISMEAR = 0
   SIGMA = 0.05
   EDIFF = 1E-5
   ALGO = Normal
   IBRION = -1
   NSW = 0
   ISYM = 0
   DIPOL = 0.5 0.5 0.5
   IDIPOL = 3
   LDIPOL = .TRUE.
   ISTART = 0
   LHFCALC = .FALSE.
   GGA = PE
   HFRCUT = -1
   ENCUT = 1000
   PREC = Normal
   PRECFOCK = Normal
   LASPH = .TRUE.
   LREAL = Auto
   ISPIN = 1
   NELM = 200
   NELMIN = 8
   NCORE = 1
   KPAR = 1
   LWAVE = .FALSE.
   LCHARG = .FALSE.

 POTCAR:    PAW_PBE Mg_sv 12Apr2007               
 POTCAR:    PAW_PBE O_h 06Feb2004                 
 POTCAR:    PAW_PBE Mg_sv 12Apr2007               
   SHA256 =  c031e1d7f73808198b463395d641520b61dff8900336e561361552d85f4fc16c Mg_sv/POTCAR          
   COPYR  = (c) Copyright 12Apr2007 Georg Kresse                                                    
   COPYR  = This file is part of the software VASP. Any use, copying, and all other rights are regul
   COPYR  = If you do not have a valid VASP license, you may not use, copy or distribute this file. 
   VRHFIN =Mg: p6s2                                                                                 
   LEXCH  = PE                                                                                      
   EATOM  =  1728.4457 eV,  127.0372 Ry                                                             
                                                                                                    
   TITEL  = PAW_PBE Mg_sv 12Apr2007                                                                 
   LULTRA =        F    use ultrasoft PP ?                                                          
   IUNSCR =        0    unscreen: 0-lin 1-nonlin 2-no                                               
   RPACOR =    0.000    partial core radius                                                         
   POMASS =   24.305; ZVAL   =   10.000    mass and valenz                                          
   RCORE  =    1.700    outmost cutoff radius                                                       
   RWIGS  =    1.800; RWIGS  =    0.953    wigner-seitz radius (au A)                               
   ENMAX  =  495.223; ENMIN  =  371.417 eV                                                          
   RCLOC  =    1.506    cutoff for local pot                                                        
   LCOR   =        T    correct aug charges                                                         
   LPAW   =        T    paw PP                                                                      
   EAUG   =  980.156                                                                                
   RMAX   =    1.743    core radius for proj-oper                                                   
   RAUG   =    1.300    factor for augmentation sphere                                              
   RDEP   =    1.781    radius for radial grids                                                     
   RDEPT  =    1.300    core radius for aug-charge                                                  
                                                                                                    
   Atomic configuration                                                                             
    5 entries                                                                                       
     n  l   j            E        occ.                                                              
     1  0  0.50     -1259.6230   2.0000                                                             
     2  0  0.50       -79.8442   2.0000                                                             
     3  0  0.50        -4.7055   2.0000                                                             
     2  1  1.50       -46.6121   6.0000                                                             
     3  2  1.50        -1.3606   0.0000                                                             
   Description                                                                                      
     l       E           TYP  RCUT    TYP  RCUT                                                     
     0    -79.8442259     23  1.200                                                                 
     0     -4.7054661     23  1.700                                                                 
     1    -46.6121068     23  1.500                                                                 
     1      6.8029130     23  1.500                                                                 
     2     -1.3605826     23  1.700                                                                 
  local pseudopotential read in
  atomic valenz-charges read in
  non local Contribution for L=            0  read in
    real space projection operators read in
  non local Contribution for L=            0  read in
    real space projection operators read in
  non local Contribution for L=            1  read in
    real space projection operators read in
  non local Contribution for L=            1  read in
    real space projection operators read in
  non local Contribution for L=            2  read in
    real space projection operators read in
    PAW grid and wavefunctions read in
 
   number of l-projection  operators is LMAX  =            5
   number of lm-projection operators is LMMAX =           13
 
 POTCAR:    PAW_PBE O_h 06Feb2004                 
   SHA256 =  7d3976308dcfb86c51a8aa000428ccf502aeca0a26316d98530ed0719b164db2 O_h/POTCAR            
   COPYR  = (c) Copyright 06Feb2004 Georg Kresse                                                    
   COPYR  = This file is part of the software VASP. Any use, copying, and all other rights are regul
   COPYR  = If you do not have a valid VASP license, you may not use, copy or distribute this file. 
   VRHFIN =O: s2p4                                                                                  
   LEXCH  = PE                                                                                      
   EATOM  =   432.3788 eV,   31.7789 Ry                                                             
                                                                                                    
   TITEL  = PAW_PBE O_h 06Feb2004                                                                   
   LULTRA =        F    use ultrasoft PP ?                                                          
   IUNSCR =        1    unscreen: 0-lin 1-nonlin 2-no                                               
   RPACOR =    0.800    partial core radius                                                         
   POMASS =   16.000; ZVAL   =    6.000    mass and valenz                                          
   RCORE  =    1.100    outmost cutoff radius                                                       
   RWIGS  =    1.400; RWIGS  =    0.741    wigner-seitz radius (au A)                               
   ENMAX  =  700.000; ENMIN  =  500.000 eV                                                          
   ICORE  =        2    local potential                                                             
   LCOR   =        T    correct aug charges                                                         
   LPAW   =        T    paw PP                                                                      
   EAUG   =  888.804                                                                                
   DEXC   =    0.000                                                                                
   RMAX   =    1.128    core radius for proj-oper                                                   
   RAUG   =    1.300    factor for augmentation sphere                                              
   RDEP   =    1.125    radius for radial grids                                                     
   RDEPT  =    1.088    core radius for aug-charge                                                  
                                                                                                    
   Atomic configuration                                                                             
    4 entries                                                                                       
     n  l   j            E        occ.                                                              
     1  0  0.50      -514.6923   2.0000                                                             
     2  0  0.50       -23.9615   2.0000                                                             
     2  1  0.50        -9.0305   4.0000                                                             
     3  2  1.50        -9.5241   0.0000                                                             
   Description                                                                                      
     l       E           TYP  RCUT    TYP  RCUT                                                     
     0    -23.9615319     23  1.100                                                                 
     0    -25.3221145     23  1.100                                                                 
     1     -9.0304911     23  1.100                                                                 
     1     -5.4802209     23  1.100                                                                 
     2     -9.5240782      7  1.100                                                                 
  local pseudopotential read in
  partial core-charges read in
  partial kinetic energy density read in
  atomic valenz-charges read in
  non local Contribution for L=            0  read in
    real space projection operators read in
  non local Contribution for L=            0  read in
    real space projection operators read in
  non local Contribution for L=            1  read in
    real space projection operators read in
  non local Contribution for L=            1  read in
    real space projection operators read in
    PAW grid and wavefunctions read in
 
   number of l-projection  operators is LMAX  =            4
   number of lm-projection operators is LMMAX =            8
 
 Optimization of the real space projectors (new method)

 maximal supplied QI-value         = 22.11
 optimisation between [QCUT,QGAM] = [ 16.14, 32.28] = [ 72.95,291.79] Ry 
 Optimized for a Real-space Cutoff    0.98 Angstroem

   l    n(q)    QCUT    max X(q) W(low)/X(q) W(high)/X(q)  e(spline) 
   0      9    16.140     8.730    0.14E-04    0.12E-04    0.27E-07
   0      9    16.140     8.910    0.19E-04    0.17E-04    0.41E-07
   1      9    16.140     2.513    0.16E-04    0.28E-04    0.54E-07
   1      9    16.140     3.341    0.27E-04    0.13E-03    0.17E-06
   2      9    16.140     3.683    0.18E-03    0.21E-03    0.81E-07
 Optimization of the real space projectors (new method)

 maximal supplied QI-value         = 34.20
 optimisation between [QCUT,QGAM] = [ 16.08, 32.15] = [ 72.37,289.48] Ry 
 Optimized for a Real-space Cutoff    0.71 Angstroem

   l    n(q)    QCUT    max X(q) W(low)/X(q) W(high)/X(q)  e(spline) 
   0      7    16.076   280.207    0.42E-03    0.69E-03    0.60E-07
   0      7    16.076   228.978    0.42E-03    0.69E-03    0.61E-07
   1      6    16.076    86.127    0.11E-03    0.66E-03    0.10E-06
   1      6    16.076    65.368    0.11E-03    0.65E-03    0.10E-06
  PAW_PBE Mg_sv 12Apr2007               :
 energy of atom  1       EATOM=-1728.4457
 kinetic energy error for atom=    0.0076 (will be added to EATOM!!)
  PAW_PBE O_h 06Feb2004                 :
 energy of atom  2       EATOM= -432.3788
 kinetic energy error for atom=    0.0171 (will be added to EATOM!!)
 
 
 POSCAR: Mg  O
  positions in direct lattice
  No initial velocities read in
 exchange correlation table for  LEXCH =        8
   RHO(1)=    0.500       N(1)  =     2000
   RHO(2)=  100.500       N(2)  =     4000
 


--------------------------------------------------------------------------------------------------------


 ion  position               nearest neighbor table
   1  0.000  0.750  0.236-
   2  0.250  0.000  0.236-
   3  0.000  0.000  0.360-
   4  0.250  0.750  0.360-
   5  0.000  0.750  0.485-
   6  0.250  1.000  0.485-
   7  0.000  0.000  0.609-
   8  0.250  0.750  0.609-
   9  0.000  0.250  0.236-
  10  0.250  0.500  0.236-
  11  0.000  0.500  0.360-
  12  0.250  0.250  0.360-
  13  1.000  0.250  0.485-
  14  0.250  0.500  0.485-
  15  0.000  0.500  0.609-
  16  0.250  0.250  0.609-
  17  0.500  0.750  0.236-
  18  0.750  0.000  0.236-
  19  0.500  0.000  0.360-
  20  0.750  0.750  0.360-
  21  0.500  0.750  0.485-
  22  0.750  0.000  0.485-
  23  0.500  0.000  0.609-
  24  0.752  0.752  0.609-
  25  0.500  0.250  0.236-
  26  0.750  0.500  0.236-
  27  0.500  0.500  0.360-
  28  0.750  0.250  0.360-
  29  0.500  0.250  0.485-
  30  0.750  0.500  0.485-
  31  0.498  0.498  0.609-
  32  0.750  0.250  0.609-
  33  0.000  0.750  0.360-
  34  0.250  0.000  0.360-
  35  0.000  0.000  0.236-
  36  0.250  0.750  0.236-
  37  0.001  0.750  0.611-
  38  0.250  1.000  0.612-
  39  0.000  0.000  0.485-
  40  0.250  0.750  0.485-
  41  0.000  0.250  0.360-
  42  0.250  0.500  0.360-
  43  0.000  0.500  0.236-
  44  0.250  0.250  0.236-
  45  1.000  0.250  0.612-
  46  0.249  0.500  0.611-
  47  1.000  0.500  0.485-
  48  0.250  0.250  0.485-
  49  0.500  0.750  0.360-
  50  0.750  0.000  0.360-
  51  0.500  0.000  0.236-
  52  0.750  0.750  0.236-
  53  0.500  0.750  0.613-
  54  0.750  0.001  0.611-
  55  0.500  1.000  0.485-
  56  0.750  0.750  0.485-
  57  0.500  0.250  0.360-
  58  0.750  0.500  0.360-
  59  0.500  0.500  0.236-
  60  0.750  0.250  0.236-
  61  0.500  0.249  0.611-
  62  0.750  0.500  0.613-
  63  0.500  0.500  0.485-
  64  0.750  0.250  0.485-
 

IMPORTANT INFORMATION: All symmetrisations will be switched off!
NOSYMM: (Re-)initialisation of all symmetry stuff for point group C_1.


----------------------------------------------------------------------------------------

                                     Primitive cell                                     

  volume of cell :    1211.2538

  direct lattice vectors                    reciprocal lattice vectors
     8.440984654  0.000000000  0.000000000     0.118469591  0.000000000  0.000000000
     0.000000000  8.440984654  0.000000000     0.000000000  0.118469591  0.000000000
     0.000000000  0.000000000 17.000000000     0.000000000  0.000000000  0.058823529

  length of vectors
     8.440984654  8.440984654 17.000000000     0.118469591  0.118469591  0.058823529

  position of ions in fractional coordinates (direct lattice)
     0.000030738  0.750030735  0.235819454
     0.250030738  0.000030735  0.235819454
     0.000030738  0.000030735  0.359951582
     0.250030738  0.750030735  0.359951582
     0.000201210  0.750096264  0.484924403
     0.250092311  0.999969265  0.484937667
     0.000230924  0.000230921  0.608776447
     0.249858919  0.749819737  0.608667763
     0.000030738  0.250030735  0.235819454
     0.250030738  0.500030735  0.235819454
     0.000030738  0.500030735  0.359951582
     0.250030738  0.250030735  0.359951582
     0.999969262  0.250092302  0.484937664
     0.249860443  0.499965307  0.484924424
     0.000202696  0.500241874  0.608667759
     0.249830687  0.249830684  0.608776513
     0.500030738  0.750030735  0.235819454
     0.750030738  0.000030735  0.235819454
     0.500030738  0.000030735  0.359951582
     0.750030738  0.750030735  0.359951582
     0.500301088  0.749760405  0.485169396
     0.750096258  0.000201208  0.484924406
     0.500241885  0.000202690  0.608667756
     0.751949439  0.751949450  0.609119152
     0.500030738  0.250030735  0.235819454
     0.750030738  0.500030735  0.235819454
     0.500030738  0.500030735  0.359951582
     0.750030738  0.250030735  0.359951582
     0.499965312  0.249860434  0.484924423
     0.749760398  0.500301085  0.485169393
     0.498112182  0.498112177  0.609119267
     0.749819734  0.249858918  0.608667762
     0.000030738  0.750030735  0.359951582
     0.250030738  0.000030735  0.359951582
     0.000030738  0.000030735  0.235819454
     0.250030738  0.750030735  0.235819454
     0.000691699  0.750207572  0.610894536
     0.250199398  0.999862199  0.611557811
     0.000145627  0.000145627  0.484545221
     0.250434878  0.750012183  0.484600927
     0.000030738  0.250030735  0.359951582
     0.250030738  0.500030735  0.359951582
     0.000030738  0.500030735  0.235819454
     0.250030738  0.250030735  0.235819454
     0.999862202  0.250199394  0.611557812
     0.249369970  0.499854062  0.610894625
     0.999626681  0.500049381  0.484600930
     0.249915938  0.249915934  0.484545237
     0.500030738  0.750030735  0.359951582
     0.750030738  0.000030735  0.359951582
     0.500030738  0.000030735  0.235819454
     0.750030738  0.750030735  0.235819454
     0.500350929  0.749710577  0.612502175
     0.750207565  0.000691696  0.610894534
     0.500049381  0.999626692  0.484600929
     0.750001397  0.750001391  0.484806093
     0.500030738  0.250030735  0.359951582
     0.750030738  0.500030735  0.359951582
     0.500030738  0.500030735  0.235819454
     0.750030738  0.250030735  0.235819454
     0.499854065  0.249369967  0.610894620
     0.749710588  0.500350924  0.612502182
     0.500060181  0.500060179  0.484806128
     0.750012185  0.250434879  0.484600929

  ion indices of the primitive-cell ions
   primitive index   ion index
                 1           1
                 2           2
                 3           3
                 4           4
                 5           5
                 6           6
                 7           7
                 8           8
                 9           9
                10          10
                11          11
                12          12
                13          13
                14          14
                15          15
                16          16
                17          17
                18          18
                19          19
                20          20
                21          21
                22          22
                23          23
                24          24
                25          25
                26          26
                27          27
                28          28
                29          29
                30          30
                31          31
                32          32
                33          33
                34          34
                35          35
                36          36
                37          37
                38          38
                39          39
                40          40
                41          41
                42          42
                43          43
                44          44
                45          45
                46          46
                47          47
                48          48
                49          49
                50          50
                51          51
                52          52
                53          53
                54          54
                55          55
                56          56
                57          57
                58          58
                59          59
                60          60
                61          61
                62          62
                63          63
                64          64

----------------------------------------------------------------------------------------

 
 
 KPOINTS: pymatgen v2020.8.13 with grid density = 

Automatic generation of k-mesh.
 Grid dimensions read from file:
 generate k-points for:    2    2    1

 Generating k-lattice:

  Cartesian coordinates                     Fractional coordinates (reciprocal lattice)
     0.059234796  0.000000000  0.000000000     0.500000000  0.000000000  0.000000000
     0.000000000  0.059234796  0.000000000     0.000000000  0.500000000  0.000000000
     0.000000000  0.000000000  0.058823529     0.000000000  0.000000000  1.000000000

  Length of vectors
     0.059234796  0.059234796  0.058823529

  Shift w.r.t. Gamma in fractional coordinates (k-lattice)
     0.000000000  0.000000000  0.000000000

 
 Subroutine IBZKPT returns following result:
 ===========================================
 
 Found      4 irreducible k-points:
 
 Following reciprocal coordinates:
            Coordinates               Weight
  0.000000  0.000000  0.000000      1.000000
  0.500000  0.000000  0.000000      1.000000
  0.000000  0.500000  0.000000      1.000000
  0.500000  0.500000  0.000000      1.000000
 
 Following cartesian coordinates:
            Coordinates               Weight
  0.000000  0.000000  0.000000      1.000000
  0.059235  0.000000  0.000000      1.000000
  0.000000  0.059235  0.000000      1.000000
  0.059235  0.059235  0.000000      1.000000
 


--------------------------------------------------------------------------------------------------------




 Dimension of arrays:
   k-points           NKPTS =      4   k-points in BZ     NKDIM =      4   number of bands    NBANDS=    308
   number of dos      NEDOS =    301   number of ions     NIONS =     64
   non local maximal  LDIM  =      5   non local SUM 2l+1 LMDIM =     13
   total plane-waves  NPLWV = 686000
   max r-space proj   IRMAX =   2301   max aug-charges    IRDMAX=   7801
   dimension x,y,z NGX =    70 NGY =   70 NGZ =  140
   dimension x,y,z NGXF=   140 NGYF=  140 NGZF=  280
   support grid    NGXF=   140 NGYF=  140 NGZF=  280
   ions per type =              32  32
   NGX,Y,Z   is equivalent  to a cutoff of  13.79, 13.79, 13.69 a.u.
   NGXF,Y,Z  is equivalent  to a cutoff of  27.57, 27.57, 27.38 a.u.

 SYSTEM =  Oxide-Surface                           
 POSCAR =  Mg  O                                   

--------------------------------------------------------------------------------------------------------


  energy-cutoff  :     1000.00
  volume of cell :     1211.25
      direct lattice vectors                 reciprocal lattice vectors
     8.440984654  0.000000000  0.000000000     0.118469591  0.000000000  0.000000000
     0.000000000  8.440984654  0.000000000     0.000000000  0.118469591  0.000000000
     0.000000000  0.000000000 17.000000000     0.000000000  0.000000000  0.058823529

  length of vectors
     8.440984654  8.440984654 17.000000000     0.118469591  0.118469591  0.058823529


 
 k-points in units of 2pi/SCALE and weight: pymatgen v2020.8.13 with grid density = 
   0.00000000  0.00000000  0.00000000       0.250
   0.05923480  0.00000000  0.00000000       0.250
   0.00000000  0.05923480  0.00000000       0.250
   0.05923480  0.05923480  0.00000000       0.250
 
 k-points in reciprocal lattice and weights: pymatgen v2020.8.13 with grid density = 
   0.00000000  0.00000000  0.00000000       0.250
   0.50000000  0.00000000  0.00000000       0.250
   0.00000000  0.50000000  0.00000000       0.250
   0.50000000  0.50000000  0.00000000       0.250
 
 position of ions in fractional coordinates (direct lattice) 
   0.00003074  0.75003073  0.23581945
   0.25003074  0.00003073  0.23581945
   0.00003074  0.00003073  0.35995158
   0.25003074  0.75003073  0.35995158
   0.00020121  0.75009626  0.48492440
   0.25009231  0.99996927  0.48493767
   0.00023092  0.00023092  0.60877645
   0.24985892  0.74981974  0.60866776
   0.00003074  0.25003073  0.23581945
   0.25003074  0.50003073  0.23581945
   0.00003074  0.50003073  0.35995158
   0.25003074  0.25003073  0.35995158
   0.99996926  0.25009230  0.48493766
   0.24986044  0.49996531  0.48492442
   0.00020270  0.50024187  0.60866776
   0.24983069  0.24983068  0.60877651
   0.50003074  0.75003073  0.23581945
   0.75003074  0.00003073  0.23581945
   0.50003074  0.00003073  0.35995158
   0.75003074  0.75003073  0.35995158
   0.50030109  0.74976041  0.48516940
   0.75009626  0.00020121  0.48492441
   0.50024189  0.00020269  0.60866776
   0.75194944  0.75194945  0.60911915
   0.50003074  0.25003073  0.23581945
   0.75003074  0.50003073  0.23581945
   0.50003074  0.50003073  0.35995158
   0.75003074  0.25003073  0.35995158
   0.49996531  0.24986043  0.48492442
   0.74976040  0.50030109  0.48516939
   0.49811218  0.49811218  0.60911927
   0.74981973  0.24985892  0.60866776
   0.00003074  0.75003073  0.35995158
   0.25003074  0.00003073  0.35995158
   0.00003074  0.00003073  0.23581945
   0.25003074  0.75003073  0.23581945
   0.00069170  0.75020757  0.61089454
   0.25019940  0.99986220  0.61155781
   0.00014563  0.00014563  0.48454522
   0.25043488  0.75001218  0.48460093
   0.00003074  0.25003073  0.35995158
   0.25003074  0.50003073  0.35995158
   0.00003074  0.50003073  0.23581945
   0.25003074  0.25003073  0.23581945
   0.99986220  0.25019939  0.61155781
   0.24936997  0.49985406  0.61089462
   0.99962668  0.50004938  0.48460093
   0.24991594  0.24991593  0.48454524
   0.50003074  0.75003073  0.35995158
   0.75003074  0.00003073  0.35995158
   0.50003074  0.00003073  0.23581945
   0.75003074  0.75003073  0.23581945
   0.50035093  0.74971058  0.61250218
   0.75020756  0.00069170  0.61089453
   0.50004938  0.99962669  0.48460093
   0.75000140  0.75000139  0.48480609
   0.50003074  0.25003073  0.35995158
   0.75003074  0.50003073  0.35995158
   0.50003074  0.50003073  0.23581945
   0.75003074  0.25003073  0.23581945
   0.49985406  0.24936997  0.61089462
   0.74971059  0.50035092  0.61250218
   0.50006018  0.50006018  0.48480613
   0.75001219  0.25043488  0.48460093
 
 position of ions in cartesian coordinates  (Angst):
   0.00025946  6.33099792  4.00893072
   2.11050562  0.00025943  4.00893072
   0.00025946  0.00025943  6.11917689
   2.11050562  6.33099792  6.11917689
   0.00169841  6.33155106  8.24371485
   2.11102536  8.44072522  8.24394034
   0.00194923  0.00194920 10.34919960
   2.10905530  6.32921690 10.34735197
   0.00025946  2.11050560  4.00893072
   2.11050562  4.22075176  4.00893072
   0.00025946  4.22075176  6.11917689
   2.11050562  2.11050560  6.11917689
   8.44072520  2.11102528  8.24394029
   2.10906817  4.22019948  8.24371521
   0.00171095  4.22253398 10.34735191
   2.10881699  2.10881697 10.34920072
   4.22075178  6.33099792  4.00893072
   6.33099795  0.00025943  4.00893072
   4.22075178  0.00025943  6.11917689
   6.33099795  6.33099792  6.11917689
   4.22303380  6.32871607  8.24787974
   6.33155101  0.00169839  8.24371491
   4.22253408  0.00171090 10.34735185
   6.34719368  6.34719376 10.35502558
   4.22075178  2.11050560  4.00893072
   6.33099795  4.22075176  4.00893072
   4.22075178  4.22075176  6.11917689
   6.33099795  2.11050560  6.11917689
   4.22019953  2.10906809  8.24371518
   6.32871601  4.22303378  8.24787968
   4.20455728  4.20455724 10.35502754
   6.32921687  2.10905529 10.34735195
   0.00025946  6.33099792  6.11917689
   2.11050562  0.00025943  6.11917689
   0.00025946  0.00025943  4.00893072
   2.11050562  6.33099792  4.00893072
   0.00583862  6.33249060 10.38520711
   2.11192928  8.43982148 10.39648279
   0.00122924  0.00122923  8.23726876
   2.11391696  6.33084132  8.23821576
   0.00025946  2.11050560  6.11917689
   2.11050562  4.22075176  6.11917689
   0.00025946  4.22075176  4.00893072
   2.11050562  2.11050560  4.00893072
   8.43982150  2.11192924 10.39648280
   2.10492809  4.21926047 10.38520862
   8.43783347  4.22090915  8.23821580
   2.10953659  2.10953657  8.23726904
   4.22075178  6.33099792  6.11917689
   6.33099795  0.00025943  6.11917689
   4.22075178  0.00025943  4.00893072
   6.33099795  6.33099792  4.00893072
   4.22345451  6.32829548 10.41253698
   6.33249054  0.00583860 10.38520708
   4.22090915  8.43783356  8.23821580
   6.33075028  6.33075023  8.24170359
   4.22075178  2.11050560  6.11917689
   6.33099795  4.22075176  6.11917689
   4.22075178  4.22075176  4.00893072
   6.33099795  2.11050560  4.00893072
   4.21926049  2.10492806 10.38520854
   6.32829557  4.22345447 10.41253709
   4.22100032  4.22100029  8.24170418
   6.33084135  2.11391697  8.23821580
 


--------------------------------------------------------------------------------------------------------

--------------------------------------- Iteration      FINAL  ---------------------------------------


--------------------OUTCAR has been truncated-------------------------


--------------------OUTCAR has been truncated-------------------------


--------------------OUTCAR has been truncated-------------------------


--------------------OUTCAR has been truncated-------------------------


--------------------OUTCAR has been truncated-------------------------


--------------------OUTCAR has been truncated-------------------------


--------------------OUTCAR has been truncated-------------------------


--------------------OUTCAR has been truncated-------------------------


--------------------OUTCAR has been truncated-------------------------


--------------------OUTCAR has been truncated-------------------------


    MIXING:  cpu time      0.0400: real time      0.0402
    OFIELD:  cpu time      0.0001: real time      0.0001

  FORCE on cell =-STRESS in cart. coord.  units (eV):
  Direction    XX          YY          ZZ          XY          YZ          ZX
  --------------------------------------------------------------------------------------
  Alpha Z  1191.54525  1191.54525  1191.54525
  Ewald  112309.02830112309.02830************    -0.20744     0.00024     0.00024
  Hartree128883.17459128883.17456************    -0.15327     0.00018     0.00019
  E(xc)   -3223.69060 -3223.69060 -3229.84504    -0.00034     0.00000    -0.00000
  Local  ************************250992.79529     0.36594    -0.00045    -0.00046
  n-local -5620.36129 -5620.36130 -5620.70899    -0.00538     0.00098     0.00098
  augment   723.99458   723.99458   714.66756    -0.00117    -0.00029    -0.00028
  Kinetic 12492.91568 12492.91583 12510.15127    -0.00175     0.00008     0.00008
  Fock        0.00000     0.00000     0.00000     0.00000     0.00000     0.00000
  -------------------------------------------------------------------------------------
  Total     -15.82750   -15.82744     7.64737    -0.00340     0.00075     0.00074
  in kB     -20.93572   -20.93563    10.11550    -0.00450     0.00099     0.00098
  external pressure =      -10.59 kB  Pullay stress =        0.00 kB


 VOLUME and BASIS-vectors are now :
 -----------------------------------------------------------------------------
  energy-cutoff  :     1000.00
  volume of cell :     1211.25
      direct lattice vectors                 reciprocal lattice vectors
     8.440984654  0.000000000  0.000000000     0.118469591  0.000000000  0.000000000
     0.000000000  8.440984654  0.000000000     0.000000000  0.118469591  0.000000000
     0.000000000  0.000000000 17.000000000     0.000000000  0.000000000  0.058823529

  length of vectors
     8.440984654  8.440984654 17.000000000     0.118469591  0.118469591  0.058823529


 FORCES acting on ions
    electron-ion (+dipol)            ewald-force                    non-local-force                 convergence-correction
 -----------------------------------------------------------------------------------------------
   0.988E-01 0.820E-01 0.245E+04   -.998E-01 -.832E-01 -.244E+04   0.910E-03 0.923E-03 -.914E+01   -.332E-04 0.775E-05 0.502E-03
   -.823E-01 0.824E-01 0.245E+04   0.839E-01 -.839E-01 -.244E+04   -.121E-02 0.127E-02 -.915E+01   0.476E-04 -.519E-04 0.542E-03
   0.236E+00 0.236E+00 0.812E+03   -.218E+00 -.218E+00 -.812E+03   -.144E-01 -.144E-01 0.680E+00   -.144E-03 -.496E-04 0.251E-02
   -.576E+00 0.218E+00 0.811E+03   0.632E+00 -.206E+00 -.812E+03   -.440E-01 -.109E-01 0.693E+00   0.375E-04 0.950E-05 0.241E-02
   0.948E+00 0.698E+00 -.817E+03   -.993E+00 -.709E+00 0.818E+03   0.341E-01 0.824E-02 -.410E+00   0.241E-03 0.220E-03 0.356E-02
   -.675E+00 0.675E+00 -.821E+03   0.687E+00 -.687E+00 0.821E+03   -.845E-02 0.913E-02 -.274E+00   -.938E-04 -.309E-04 0.371E-02
   -.863E+00 -.863E+00 -.243E+04   0.104E+01 0.104E+01 0.242E+04   -.138E+00 -.138E+00 0.787E+01   0.675E-04 0.340E-04 -.731E-02
   -.432E+01 -.579E+00 -.243E+04   0.444E+01 0.746E+00 0.242E+04   -.435E-01 -.129E+00 0.775E+01   0.165E-03 0.206E-03 -.704E-02
   0.824E-01 -.823E-01 0.245E+04   -.839E-01 0.839E-01 -.244E+04   0.127E-02 -.121E-02 -.915E+01   -.830E-04 -.643E-05 0.548E-03
   -.988E-01 -.819E-01 0.245E+04   0.998E-01 0.832E-01 -.244E+04   -.868E-03 -.847E-03 -.914E+01   0.183E-03 0.233E-05 0.464E-03
   0.576E+00 -.218E+00 0.811E+03   -.632E+00 0.206E+00 -.812E+03   0.430E-01 0.983E-02 0.692E+00   -.104E-05 -.485E-04 0.238E-02
   -.236E+00 -.236E+00 0.812E+03   0.218E+00 0.218E+00 -.812E+03   0.133E-01 0.133E-01 0.681E+00   0.919E-04 0.133E-03 0.250E-02
   0.674E+00 -.675E+00 -.821E+03   -.687E+00 0.687E+00 0.821E+03   0.912E-02 -.842E-02 -.274E+00   0.567E-04 -.148E-03 0.371E-02
   -.947E+00 -.697E+00 -.817E+03   0.993E+00 0.709E+00 0.818E+03   -.362E-01 -.752E-02 -.410E+00   -.940E-05 -.175E-04 0.355E-02
   0.432E+01 0.579E+00 -.243E+04   -.444E+01 -.746E+00 0.242E+04   0.420E-01 0.128E+00 0.776E+01   -.111E-03 -.238E-03 -.694E-02
   0.863E+00 0.863E+00 -.243E+04   -.104E+01 -.104E+01 0.242E+04   0.136E+00 0.136E+00 0.787E+01   -.121E-03 -.295E-04 -.717E-02
   -.919E-01 0.920E-01 0.245E+04   0.947E-01 -.947E-01 -.244E+04   -.209E-02 0.215E-02 -.917E+01   -.118E-04 -.545E-04 0.388E-03
   0.821E-01 0.987E-01 0.245E+04   -.832E-01 -.998E-01 -.244E+04   0.934E-03 0.887E-03 -.914E+01   -.690E-04 0.413E-04 0.606E-03
   -.218E+00 0.576E+00 0.811E+03   0.206E+00 -.632E+00 -.812E+03   0.980E-02 0.430E-01 0.692E+00   0.600E-04 0.517E-04 0.230E-02
   0.511E+00 0.511E+00 0.810E+03   -.541E+00 -.541E+00 -.810E+03   0.238E-01 0.238E-01 0.746E+00   0.100E-03 0.152E-03 0.202E-02
   -.138E+01 0.138E+01 -.827E+03   0.141E+01 -.141E+01 0.828E+03   -.386E-01 0.362E-01 -.248E+00   -.235E-03 0.726E-04 0.356E-02
   0.698E+00 0.948E+00 -.817E+03   -.709E+00 -.993E+00 0.818E+03   0.824E-02 0.341E-01 -.410E+00   0.177E-03 0.113E-03 0.368E-02
   0.579E+00 0.432E+01 -.243E+04   -.746E+00 -.444E+01 0.242E+04   0.127E+00 0.420E-01 0.776E+01   -.107E-03 -.224E-03 -.710E-02
   0.763E+01 0.763E+01 -.243E+04   -.778E+01 -.778E+01 0.243E+04   -.474E-01 -.474E-01 0.778E+01   -.167E-03 0.135E-04 -.673E-02
   -.820E-01 -.988E-01 0.245E+04   0.832E-01 0.998E-01 -.244E+04   -.886E-03 -.879E-03 -.914E+01   0.127E-03 0.157E-03 0.527E-03
   0.921E-01 -.918E-01 0.245E+04   -.947E-01 0.947E-01 -.244E+04   0.218E-02 -.207E-02 -.917E+01   -.165E-03 -.104E-03 0.452E-03
   -.511E+00 -.511E+00 0.810E+03   0.541E+00 0.541E+00 -.810E+03   -.249E-01 -.249E-01 0.745E+00   -.585E-04 -.210E-03 0.212E-02
   0.218E+00 -.576E+00 0.811E+03   -.206E+00 0.632E+00 -.812E+03   -.109E-01 -.440E-01 0.693E+00   -.119E-03 -.146E-04 0.220E-02
   -.697E+00 -.947E+00 -.817E+03   0.709E+00 0.993E+00 0.818E+03   -.748E-02 -.362E-01 -.410E+00   -.129E-03 0.735E-05 0.357E-02
   0.138E+01 -.138E+01 -.827E+03   -.141E+01 0.141E+01 0.828E+03   0.363E-01 -.387E-01 -.248E+00   -.376E-04 -.191E-03 0.347E-02
   -.763E+01 -.763E+01 -.243E+04   0.778E+01 0.778E+01 0.243E+04   0.497E-01 0.498E-01 0.778E+01   0.148E-03 0.142E-04 -.699E-02
   -.579E+00 -.432E+01 -.243E+04   0.746E+00 0.444E+01 0.242E+04   -.129E+00 -.435E-01 0.775E+01   0.162E-03 0.188E-03 -.698E-02
   0.312E+00 0.206E+00 0.486E+03   -.325E+00 -.213E+00 -.486E+03   0.160E-01 0.797E-02 -.486E-01   -.540E-04 0.736E-04 -.364E-02
   -.196E+00 0.196E+00 0.486E+03   0.194E+00 -.194E+00 -.486E+03   0.220E-02 -.307E-02 -.824E-01   -.315E-04 0.909E-05 -.363E-02
   0.412E-01 0.411E-01 0.148E+04   -.401E-01 -.401E-01 -.149E+04   0.978E-04 0.683E-04 0.263E+01   -.641E-05 0.998E-04 -.215E-02
   -.662E-01 0.411E-01 0.148E+04   0.709E-01 -.396E-01 -.149E+04   -.682E-02 -.243E-02 0.264E+01   0.116E-03 -.153E-04 -.224E-02
   -.334E+00 0.816E+00 -.149E+04   0.490E+00 -.914E+00 0.149E+04   -.176E+00 0.121E+00 -.437E+01   -.479E-04 0.147E-03 -.575E-02
   -.674E+00 0.674E+00 -.149E+04   0.788E+00 -.788E+00 0.149E+04   -.139E+00 0.139E+00 -.466E+01   -.794E-04 -.614E-04 -.595E-02
   -.183E-01 -.182E-01 -.486E+03   0.213E-01 0.213E-01 0.485E+03   -.686E-02 -.683E-02 0.289E+00   0.327E-04 -.291E-04 -.237E-02
   -.121E+01 -.343E-01 -.486E+03   0.128E+01 0.441E-01 0.486E+03   -.918E-01 -.136E-01 0.321E+00   -.478E-04 0.107E-03 -.243E-02
   0.196E+00 -.196E+00 0.486E+03   -.194E+00 0.194E+00 -.486E+03   -.307E-02 0.220E-02 -.824E-01   -.106E-04 -.331E-04 -.367E-02
   -.312E+00 -.206E+00 0.486E+03   0.325E+00 0.213E+00 -.486E+03   -.169E-01 -.889E-02 -.486E-01   0.935E-04 -.555E-04 -.370E-02
   0.661E-01 -.410E-01 0.148E+04   -.709E-01 0.396E-01 -.149E+04   0.793E-02 0.358E-02 0.263E+01   -.572E-04 -.917E-04 -.222E-02
   -.412E-01 -.412E-01 0.148E+04   0.401E-01 0.401E-01 -.149E+04   0.102E-02 0.103E-02 0.264E+01   -.169E-04 0.261E-04 -.221E-02
   0.674E+00 -.674E+00 -.149E+04   -.788E+00 0.788E+00 0.149E+04   0.139E+00 -.139E+00 -.466E+01   -.413E-05 -.511E-04 -.586E-02
   0.334E+00 -.816E+00 -.149E+04   -.490E+00 0.914E+00 0.149E+04   0.179E+00 -.121E+00 -.437E+01   0.309E-04 -.570E-04 -.572E-02
   0.121E+01 0.343E-01 -.486E+03   -.128E+01 -.441E-01 0.486E+03   0.907E-01 0.145E-01 0.311E+00   0.516E-04 -.402E-04 -.245E-02
   0.180E-01 0.181E-01 -.486E+03   -.213E-01 -.212E-01 0.485E+03   0.613E-02 0.615E-02 0.300E+00   0.435E-04 -.548E-04 -.244E-02
   -.224E+00 0.224E+00 0.485E+03   0.202E+00 -.202E+00 -.484E+03   0.276E-01 -.285E-01 -.128E+00   -.655E-04 -.872E-05 -.374E-02
   0.206E+00 0.312E+00 0.486E+03   -.213E+00 -.326E+00 -.486E+03   0.798E-02 0.159E-01 -.486E-01   0.101E-03 0.206E-04 -.374E-02
   -.411E-01 0.661E-01 0.148E+04   0.396E-01 -.709E-01 -.149E+04   0.354E-02 0.791E-02 0.263E+01   0.934E-05 -.498E-04 -.223E-02
   0.616E-01 0.615E-01 0.148E+04   -.679E-01 -.679E-01 -.149E+04   0.789E-02 0.786E-02 0.263E+01   -.613E-04 -.285E-05 -.216E-02
   -.274E+01 0.274E+01 -.149E+04   0.304E+01 -.304E+01 0.150E+04   -.331E+00 0.333E+00 -.493E+01   -.177E-04 0.600E-04 -.588E-02
   0.816E+00 -.334E+00 -.149E+04   -.914E+00 0.490E+00 0.149E+04   0.121E+00 -.176E+00 -.437E+01   0.686E-04 -.301E-04 -.577E-02
   0.343E-01 0.121E+01 -.486E+03   -.441E-01 -.128E+01 0.486E+03   0.145E-01 0.907E-01 0.311E+00   -.725E-04 0.691E-04 -.232E-02
   0.133E+01 0.133E+01 -.489E+03   -.136E+01 -.136E+01 0.488E+03   0.549E-01 0.549E-01 0.224E+00   0.472E-04 0.777E-04 -.250E-02
   -.206E+00 -.312E+00 0.486E+03   0.213E+00 0.325E+00 -.486E+03   -.891E-02 -.169E-01 -.486E-01   0.311E-04 0.986E-04 -.371E-02
   0.224E+00 -.224E+00 0.485E+03   -.202E+00 0.202E+00 -.484E+03   -.285E-01 0.276E-01 -.128E+00   -.139E-04 -.133E-03 -.367E-02
   -.616E-01 -.615E-01 0.148E+04   0.679E-01 0.679E-01 -.149E+04   -.674E-02 -.672E-02 0.263E+01   0.568E-04 -.524E-04 -.222E-02
   0.411E-01 -.661E-01 0.148E+04   -.396E-01 0.709E-01 -.149E+04   -.240E-02 -.679E-02 0.264E+01   -.559E-04 0.742E-04 -.224E-02
   -.816E+00 0.334E+00 -.149E+04   0.914E+00 -.490E+00 0.149E+04   -.121E+00 0.179E+00 -.437E+01   0.472E-04 0.135E-03 -.579E-02
   0.274E+01 -.274E+01 -.149E+04   -.304E+01 0.304E+01 0.150E+04   0.333E+00 -.331E+00 -.493E+01   -.382E-04 -.103E-03 -.587E-02
   -.133E+01 -.133E+01 -.489E+03   0.136E+01 0.136E+01 0.488E+03   -.536E-01 -.536E-01 0.222E+00   -.267E-04 -.100E-03 -.251E-02
   -.342E-01 -.121E+01 -.486E+03   0.441E-01 0.128E+01 0.486E+03   -.136E-01 -.919E-01 0.321E+00   0.137E-04 -.762E-05 -.237E-02
 -----------------------------------------------------------------------------------------------
   -.273E-03 -.264E-03 0.219E+02   -.995E-13 -.220E-12 0.125E-11   -.341E-02 -.344E-02 -.218E+02   0.257E-05 0.233E-04 -.118E+00
 
 
 POSITION                                       TOTAL-FORCE (eV/Angst)
 -----------------------------------------------------------------------------------
      0.00026      6.33100      4.00893        -0.000091     -0.000183      0.307616
      2.11051      0.00026      4.00893         0.000449     -0.000189      0.310101
      0.00026      0.00026      6.11918         0.004196      0.004194      0.027113
      2.11051      6.33100      6.11918         0.012643      0.001049      0.036609
      0.00170      6.33155      8.24371        -0.011430     -0.002931      0.022362
      2.11103      8.44073      8.24394         0.003646     -0.002815      0.049708
      0.00195      0.00195     10.34920         0.035028      0.035006     -0.002955
      2.10906      6.32922     10.34735         0.078815      0.037459      0.040308
      0.00026      2.11051      4.00893        -0.000186      0.000452      0.310103
      2.11051      4.22075      4.00893         0.000340      0.000432      0.307613
      0.00026      4.22075      6.11918        -0.013598     -0.002002      0.032666
      2.11051      2.11051      6.11918        -0.005154     -0.005150      0.031074
      8.44073      2.11103      8.24394        -0.002822      0.003647      0.049686
      2.10907      4.22020      8.24372         0.009441      0.003881      0.022618
      0.00171      4.22253     10.34735        -0.080346     -0.039242      0.042009
      2.10882      2.10882     10.34920        -0.036146     -0.036168     -0.002444
      4.22075      6.33100      4.00893         0.000734     -0.000462      0.312429
      6.33100      0.00026      4.00893        -0.000178     -0.000081      0.307613
      4.22075      0.00026      6.11918        -0.002002     -0.013598      0.032674
      6.33100      6.33100      6.11918        -0.006655     -0.006665      0.043811
      4.22303      6.32872      8.24788         0.000449     -0.002830      0.091685
      6.33155      0.00170      8.24371        -0.002933     -0.011422      0.022345
      4.22253      0.00171     10.34735        -0.039258     -0.080347      0.042012
      6.34719      6.34719     10.35503        -0.195836     -0.195832      0.014376
      4.22075      2.11051      4.00893         0.000443      0.000343      0.307605
      6.33100      4.22075      4.00893        -0.000457      0.000730      0.312433
      4.22075      4.22075      6.11918         0.005714      0.005716      0.039928
      6.33100      2.11051      6.11918         0.001047      0.012635      0.036583
      4.22020      2.10907      8.24372         0.003890      0.009449      0.022623
      6.32872      4.22303      8.24788        -0.002842      0.000440      0.091679
      4.20456      4.20456     10.35503         0.197319      0.197317      0.013451
      6.32922      2.10906     10.34735         0.037437      0.078818      0.040348
      0.00026      6.33100      6.11918         0.002675      0.001295      0.060475
      2.11051      0.00026      6.11918         0.000252     -0.001026      0.052558
      0.00026      0.00026      4.00893         0.001276      0.001269     -0.555032
      2.11051      6.33100      4.00893        -0.001870     -0.000879     -0.546559
      0.00584      6.33249     10.38521        -0.020143      0.023092      0.128939
      2.11193      8.43982     10.39648        -0.023844      0.024908      0.048295
      0.00123      0.00123      8.23727        -0.003751     -0.003745      0.019257
      2.11392      6.33084      8.23822        -0.024074     -0.003670      0.017634
      0.00026      2.11051      6.11918        -0.001031      0.000249      0.052563
      2.11051      4.22075      6.11918        -0.003454     -0.002068      0.060473
      0.00026      4.22075      4.00893         0.003100      0.002119     -0.555563
      2.11051      2.11051      4.00893        -0.000042     -0.000046     -0.545962
      8.43982      2.11193     10.39648         0.024897     -0.023843      0.048330
      2.10493      4.21926     10.38521         0.022556     -0.022761      0.128685
      8.43783      4.22091      8.23822         0.023637      0.004670      0.007940
      2.10954      2.10954      8.23727         0.002952      0.002967      0.029340
      4.22075      6.33100      6.11918         0.005639     -0.006418      0.056721
      6.33100      0.00026      6.11918         0.001293      0.002676      0.060471
      4.22075      0.00026      4.00893         0.002110      0.003095     -0.555594
      6.33100      6.33100      4.00893         0.001530      0.001527     -0.547219
      4.22345      6.32830     10.41254        -0.034303      0.035864     -0.040839
      6.33249      0.00584     10.38521         0.023106     -0.020136      0.128969
      4.22091      8.43783      8.23822         0.004672      0.023629      0.007927
      6.33075      6.33075      8.24170         0.020439      0.020437      0.002050
      4.22075      2.11051      6.11918        -0.002075     -0.003460      0.060470
      6.33100      4.22075      6.11918        -0.006414      0.005644      0.056713
      4.22075      4.22075      4.00893        -0.000302     -0.000295     -0.556314
      6.33100      2.11051      4.00893        -0.000881     -0.001866     -0.546554
      4.21926      2.10493     10.38521        -0.022764      0.022552      0.128688
      6.32830      4.22345     10.41254         0.035881     -0.034300     -0.040836
      4.22100      4.22100      8.24170        -0.019063     -0.019052      0.000563
      6.33084      2.11392      8.23822        -0.003660     -0.024079      0.017625
 -----------------------------------------------------------------------------------
    total drift:                               -0.003685     -0.003681     -0.007312


--------------------------------------------------------------------------------------------------------



  FREE ENERGIE OF THE ION-ELECTRON SYSTEM (eV)
  ---------------------------------------------------
  free  energy   TOTEN  =      -372.62835700 eV

  energy  without entropy=     -372.62835700  energy(sigma->0) =     -372.62835700
 


--------------------------------------------------------------------------------------------------------


    POTLOK:  cpu time      1.1166: real time      1.1190


--------------------------------------------------------------------------------------------------------


     LOOP+:  cpu time     78.2442: real time     78.4850
    4ORBIT:  cpu time      0.0000: real time      0.0000

 total amount of memory used by VASP MPI-rank0   629137. kBytes
=======================================================================

   base      :      30000. kBytes
   nonlr-proj:      12330. kBytes
   fftplans  :      49105. kBytes
   grid      :     104742. kBytes
   one-center:        519. kBytes
   wavefun   :     432441. kBytes
 
  
  
 General timing and accounting informations for this job:
 ========================================================
  
                  Total CPU time used (sec):       84.614
                            User time (sec):       83.326
                          System time (sec):        1.287
                         Elapsed time (sec):       88.196
  
                   Maximum memory used (kb):     1843160.
                   Average memory used (kb):          N/A
  
                          Minor page faults:       234204
                          Major page faults:            0
                 Voluntary context switches:        13732


                    ____  _____ _____     ____  _  _
      -------------|  _ \|  ___|_   _|---|  _ \| || |------------
     |             | | | | |_    | | ___ | | | | || |_           |
     |             | |_| |  _|   | ||___|| |_| |__   _|          |
     |             |____/|_|     |_|     |____/   |_|            |
     |             ===================================           |
     |            E. Caldeweyher, S. Ehlert & S. Grimme          |
     |          Mulliken Center for Theoretical Chemistry        |
     |                    University of Bonn                     |
      ----------------------------------------------------------- 

Rational (Becke-Johnson) damping: hse06-D4-ATM
---------------------
  s6         1.0000
  s8         1.1953
  s9         1.0000
  a1         0.3866
  a2         5.1913
 alp        16.0000
--------------------

Dispersion energy:      -2.6842185353454E-01 Eh

