 vasp.6.3.0 20Jan22 (build Aug 21 2024 11:13:42) complex                         
 executed on        HPECrayEX_GCC date 2024.11.26  19:50:10
 running  512 mpi-ranks, with    1 threads/rank
 distrk:  each k-point on  512 cores,    1 groups
 distr:  one band on NCORE=  16 cores,   32 groups


--------------------------------------------------------------------------------------------------------


 INCAR:
   SYSTEM = TiO2
   ISMEAR = 0
   SIGMA = 0.05
   EDIFF = 1E-4
   ALGO = ALL
   ISTART = 0
   IBRION = -1
   NSW = 0
   ISYM = 0
   ISIF = 2
   EDIFFG = -0.01
   DIPOL = 0.5 0.5 0.5
   IDIPOL = 3
   LDIPOL = .TRUE.
   GGA = PE
   IVDW = 21
   ENCUT = 600
   PREC = Accurate
   LASPH = .TRUE.
   LREAL = .FALSE.
   ISPIN = 1
   NELM = 200
   NELMIN = 8
   NCORE = 16
   KPAR = 1
   LWAVE = .FALSE.
   LCHARG = .FALSE.

 POTCAR:    PAW_PBE Ti_pv 07Sep2000               
 POTCAR:    PAW_PBE O 08Apr2002                   
 POTCAR:    PAW_PBE Ti_pv 07Sep2000               
   SHA256 =  f757a1b2c6d082f4c628fa3d987464a8763bf92e53844ac0500b0e2ddc9ce5c0 Ti_pv/POTCAR          
   COPYR  = (c) Copyright 07Sep2000 Georg Kresse                                                    
   COPYR  = This file is part of the software VASP. Any use, copying, and all other rights are regul
   COPYR  = If you do not have a valid VASP license, you may not use, copy or distribute this file. 
   VRHFIN =Ti: d3 s1                                                                                
   LEXCH  = PE                                                                                      
   EATOM  =  1042.5995 eV,   76.6289 Ry                                                             
                                                                                                    
   TITEL  = PAW_PBE Ti_pv 07Sep2000                                                                 
   LULTRA =        F    use ultrasoft PP ?                                                          
   IUNSCR =        1    unscreen: 0-lin 1-nonlin 2-no                                               
   RPACOR =    2.200    partial core radius                                                         
   POMASS =   47.880; ZVAL   =   10.000    mass and valenz                                          
   RCORE  =    2.500    outmost cutoff radius                                                       
   RWIGS  =    2.500; RWIGS  =    1.323    wigner-seitz radius (au A)                               
   ENMAX  =  222.335; ENMIN  =  166.751 eV                                                          
   RCLOC  =    1.701    cutoff for local pot                                                        
   LCOR   =        T    correct aug charges                                                         
   LPAW   =        T    paw PP                                                                      
   EAUG   =  482.848                                                                                
   DEXC   =    0.000                                                                                
   RMAX   =    2.564    core radius for proj-oper                                                   
   RAUG   =    1.300    factor for augmentation sphere                                              
   RDEP   =    2.538    radius for radial grids                                                     
   RDEPT  =    1.952    core radius for aug-charge                                                  
                                                                                                    
   Atomic configuration                                                                             
    8 entries                                                                                       
     n  l   j            E        occ.                                                              
     1  0  0.50     -4865.3608   2.0000                                                             
     2  0  0.50      -533.1368   2.0000                                                             
     2  1  1.50      -440.5031   6.0000                                                             
     3  0  0.50       -59.3186   2.0000                                                             
     3  1  1.50       -35.7012   6.0000                                                             
     3  2  2.50        -1.9157   3.0000                                                             
     4  0  0.50        -3.7291   1.0000                                                             
     4  3  2.50        -1.3606   0.0000                                                             
   Description                                                                                      
     l       E           TYP  RCUT    TYP  RCUT                                                     
     1    -35.7012140     23  2.300                                                                 
     1     -1.3605826     23  2.300                                                                 
     2     -1.9156996     23  2.500                                                                 
     2     -0.4063033     23  2.500                                                                 
     0     -3.7290856     23  2.500                                                                 
     0     20.4087390     23  2.500                                                                 
  local pseudopotential read in
  partial core-charges read in
  partial kinetic energy density read in
  atomic valenz-charges read in
  non local Contribution for L=           1  read in
    real space projection operators read in
  non local Contribution for L=           1  read in
    real space projection operators read in
  non local Contribution for L=           2  read in
    real space projection operators read in
  non local Contribution for L=           2  read in
    real space projection operators read in
  non local Contribution for L=           0  read in
    real space projection operators read in
  non local Contribution for L=           0  read in
    real space projection operators read in
    PAW grid and wavefunctions read in

   number of l-projection  operators is LMAX  =           6
   number of lm-projection operators is LMMAX =          18

 POTCAR:    PAW_PBE O 08Apr2002                   
   SHA256 =  818f92134a0a090dccd8ba1447fa70422a3b330e708bb4f08108d8ae51209ddf O/POTCAR              
   COPYR  = (c) Copyright 08Apr2002 Georg Kresse                                                    
   COPYR  = This file is part of the software VASP. Any use, copying, and all other rights are regul
   COPYR  = If you do not have a valid VASP license, you may not use, copy or distribute this file. 
   VRHFIN =O: s2p4                                                                                  
   LEXCH  = PE                                                                                      
   EATOM  =   432.3788 eV,   31.7789 Ry                                                             
                                                                                                    
   TITEL  = PAW_PBE O 08Apr2002                                                                     
   LULTRA =        F    use ultrasoft PP ?                                                          
   IUNSCR =        1    unscreen: 0-lin 1-nonlin 2-no                                               
   RPACOR =    1.200    partial core radius                                                         
   POMASS =   16.000; ZVAL   =    6.000    mass and valenz                                          
   RCORE  =    1.520    outmost cutoff radius                                                       
   RWIGS  =    1.550; RWIGS  =    0.820    wigner-seitz radius (au A)                               
   ENMAX  =  400.000; ENMIN  =  300.000 eV                                                          
   ICORE  =        2    local potential                                                             
   LCOR   =        T    correct aug charges                                                         
   LPAW   =        T    paw PP                                                                      
   EAUG   =  605.392                                                                                
   DEXC   =    0.000                                                                                
   RMAX   =    1.553    core radius for proj-oper                                                   
   RAUG   =    1.300    factor for augmentation sphere                                              
   RDEP   =    1.550    radius for radial grids                                                     
   RDEPT  =    1.329    core radius for aug-charge                                                  
                                                                                                    
   Atomic configuration                                                                             
    4 entries                                                                                       
     n  l   j            E        occ.                                                              
     1  0  0.50      -514.6923   2.0000                                                             
     2  0  0.50       -23.9615   2.0000                                                             
     2  1  0.50        -9.0305   4.0000                                                             
     3  2  1.50        -9.5241   0.0000                                                             
   Description                                                                                      
     l       E           TYP  RCUT    TYP  RCUT                                                     
     0    -23.9615318     23  1.200                                                                 
     0     -9.5240782     23  1.200                                                                 
     1     -9.0304911     23  1.520                                                                 
     1      8.1634956     23  1.520                                                                 
     2     -9.5240782      7  1.500                                                                 
  local pseudopotential read in
  partial core-charges read in
  partial kinetic energy density read in
  kinetic energy density of atom read in
  atomic valenz-charges read in
  non local Contribution for L=           0  read in
    real space projection operators read in
  non local Contribution for L=           0  read in
    real space projection operators read in
  non local Contribution for L=           1  read in
    real space projection operators read in
  non local Contribution for L=           1  read in
    real space projection operators read in
    PAW grid and wavefunctions read in

   number of l-projection  operators is LMAX  =           4
   number of lm-projection operators is LMMAX =           8

 -----------------------------------------------------------------------------
|                                                                             |
|               ----> ADVICE to this user running VASP <----                  |
|                                                                             |
|     You have a (more or less) 'large supercell' and for larger cells it     |
|     might be more efficient to use real-space projection operators.         |
|     Therefore, try LREAL= Auto in the INCAR file.                           |
|     Mind: For very accurate calculation, you might also keep the            |
|     reciprocal projection scheme (i.e. LREAL=.FALSE.).                      |
|                                                                             |
 -----------------------------------------------------------------------------

  PAW_PBE Ti_pv 07Sep2000               :
 energy of atom  1       EATOM=-1042.5995
 kinetic energy error for atom=    0.0007 (will be added to EATOM!!)
  PAW_PBE O 08Apr2002                   :
 energy of atom  2       EATOM= -432.3788
 kinetic energy error for atom=    0.0168 (will be added to EATOM!!)


 POSCAR: Ti  O
  positions in direct lattice
  No initial velocities read in
 exchange correlation table for  LEXCH =        8
   RHO(1)=    0.500       N(1)  =     2000
   RHO(2)=  100.500       N(2)  =     4000



--------------------------------------------------------------------------------------------------------


 ion  position               nearest neighbor table
   1  0.750  0.625  0.287-  81 1.95 141 1.95  82 1.95 142 1.95 163 1.98  84 1.98  11 2.96  31 2.96

   2  0.000  0.750  0.287-  84 1.95 104 1.95 103 1.95  83 1.95  85 1.98  32 2.96  12 2.96
   3  0.000  0.625  0.394-  85 1.95 145 1.95  86 1.95 146 1.95  87 1.98  88 1.98  13 2.96  33 2.96

   4  0.750  0.750  0.394- 168 1.95 188 1.95  87 1.95 107 1.95  89 1.98  82 1.98  14 2.96  34 2.96

   5  0.750  0.625  0.500-  89 1.95  90 1.95 149 1.95 150 1.95  92 1.98 171 1.98  15 2.96  35 2.96

   6  0.000  0.750  0.500-  91 1.95  92 1.95 111 1.95 112 1.95  86 1.98  93 2.00  16 2.96  36 2.96

   7  0.007  0.625  0.604-  96 1.87  93 1.90 153 1.90  94 2.02 154 2.02  95 2.03  17 2.96  37 2.96

   8  0.756  0.750  0.610-  97 1.87  95 1.93 115 1.93 176 2.01 196 2.02  90 2.09  18 2.96  38 2.96

   9  0.751  0.626  0.719-  98 1.83 158 1.87 179 2.00 100 2.02  97 2.08 157 2.09  19 2.95  39 2.99

  10  0.000  0.750  0.708-  94 1.81 119 1.94 120 1.94  99 1.95 100 1.96  20 2.95  40 2.96
  11  0.750  0.875  0.287-  81 1.95 101 1.95  82 1.95 102 1.95 183 1.98 104 1.98   1 2.96  21 2.96

  12  0.000  0.000  0.287- 104 1.95 124 1.95 123 1.95 103 1.95 105 1.98  22 2.96   2 2.96
  13  0.000  0.875  0.394-  85 1.95 105 1.95  86 1.95 106 1.95 107 1.98 108 1.98   3 2.96  23 2.96

  14  0.750  0.000  0.394- 188 1.95 208 1.95 107 1.95 127 1.95 109 1.98 102 1.98   4 2.96  24 2.96

  15  0.750  0.875  0.500-  89 1.95  90 1.95 109 1.95 110 1.95 112 1.98 191 1.98   5 2.96  25 2.96

  16  0.000  0.000  0.500- 111 1.95 112 1.95 131 1.95 132 1.95 106 1.98 113 2.00   6 2.96  26 2.96

  17  0.007  0.875  0.604- 116 1.87  93 1.90 113 1.90 114 2.02  94 2.02 115 2.04  27 2.96   7 2.96

  18  0.756  0.000  0.611- 117 1.87 115 1.92 135 1.93 216 2.01 196 2.02 110 2.10  28 2.96   8 2.96

  19  0.750  0.875  0.720- 118 1.84  98 1.84 199 2.02 120 2.04  97 2.09 117 2.09   9 2.95  29 2.95

  20  0.000  1.000  0.708- 114 1.81 120 1.95 140 1.95 139 1.95 119 1.95  10 2.95  30 2.95
  21  0.750  0.125  0.287- 101 1.95 121 1.95 102 1.95 122 1.95 203 1.98 124 1.98  11 2.96  31 2.96

  22  0.000  0.250  0.287- 124 1.95 144 1.95 143 1.95 123 1.95 125 1.98  32 2.96  12 2.96
  23  0.000  0.125  0.394- 105 1.95 125 1.95 106 1.95 126 1.95 127 1.98 128 1.98  13 2.96  33 2.96

  24  0.750  0.250  0.394- 208 1.95 228 1.95 127 1.95 147 1.95 129 1.98 122 1.98  14 2.96  34 2.96

  25  0.750  0.125  0.500- 109 1.95 110 1.95 129 1.95 130 1.95 132 1.98 211 1.98  15 2.96  35 2.96

  26  0.000  0.250  0.500- 131 1.95 132 1.95 151 1.95 152 1.95 126 1.98 133 2.00  16 2.96  36 2.96

  27  0.007  0.125  0.604- 136 1.86 133 1.90 113 1.90 114 2.02 134 2.02 135 2.04  17 2.96  37 2.96

  28  0.756  0.250  0.610- 137 1.87 155 1.93 135 1.93 216 2.01 236 2.01 130 2.09  18 2.96  38 2.96

  29  0.750  0.124  0.720- 118 1.83 138 1.84 219 2.02 140 2.04 117 2.09 137 2.10  39 2.95  19 2.95

  30  0.000  0.250  0.708- 134 1.81 139 1.94 140 1.94 159 1.95 160 1.96  20 2.95  40 2.96
  31  0.750  0.375  0.287- 121 1.95 141 1.95 122 1.95 142 1.95 223 1.98 144 1.98   1 2.96  21 2.96

  32  0.000  0.500  0.287-  84 1.95 144 1.95 143 1.95  83 1.95 145 1.98  22 2.96   2 2.96
  33  0.000  0.375  0.394- 125 1.95 145 1.95 126 1.95 146 1.95 147 1.98 148 1.98   3 2.96  23 2.96

  34  0.750  0.500  0.394- 168 1.95 228 1.95  87 1.95 147 1.95 142 1.98 149 1.98   4 2.96  24 2.96

  35  0.750  0.375  0.500- 129 1.95 130 1.95 149 1.95 150 1.95 152 1.98 231 1.98   5 2.96  25 2.96

  36  0.000  0.500  0.500-  91 1.95  92 1.95 151 1.95 152 1.95 146 1.98 153 2.00   6 2.96  26 2.96

  37  0.007  0.375  0.604- 156 1.87 153 1.90 133 1.90 134 2.02 154 2.02 155 2.03  27 2.96   7 2.96

  38  0.756  0.500  0.610- 157 1.86 155 1.93  95 1.93 236 2.02 176 2.02 150 2.10   8 2.96  28 2.96

  39  0.752  0.373  0.719- 138 1.83 158 1.87 160 2.01 239 2.02 137 2.06 157 2.10  29 2.95   9 2.99

  40  0.001  0.500  0.708- 154 1.81 159 1.94  99 1.94 100 1.95 160 1.95  10 2.96  30 2.96
  41  0.250  0.625  0.287- 161 1.95 221 1.95 162 1.95 222 1.95  83 1.98 164 1.98  51 2.96  71 2.96

  42  0.500  0.750  0.287- 164 1.95 184 1.95 183 1.95 163 1.95 165 1.98  72 2.96  52 2.96
  43  0.500  0.625  0.394- 165 1.95 225 1.95 166 1.95 226 1.95 167 1.98 168 1.98  53 2.96  73 2.96

  44  0.250  0.750  0.394-  88 1.95 108 1.95 167 1.95 187 1.95 169 1.98 162 1.98  54 2.96  74 2.96

  45  0.250  0.625  0.500- 169 1.95 170 1.95 229 1.95 230 1.95  91 1.98 172 1.98  55 2.96  75 2.96

  46  0.500  0.750  0.500- 171 1.95 172 1.95 191 1.95 192 1.95 166 1.98 173 1.99  56 2.96  76 2.96

  47  0.507  0.623  0.605- 176 1.87 233 1.90 173 1.93 234 1.98 174 2.01 175 2.04  77 2.90  57 2.97

  48  0.256  0.750  0.610- 177 1.87 175 1.92 195 1.92  96 2.02 116 2.02 170 2.10  78 2.96  58 2.96

  49  0.251  0.625  0.720- 178 1.83 238 1.84  99 2.03 180 2.05 177 2.09 237 2.09  59 2.96  79 2.96

  50  0.501  0.750  0.707- 174 1.80 179 1.91 180 1.94 199 1.95 200 1.96  60 2.96  80 2.97
  51  0.250  0.875  0.287- 161 1.95 181 1.95 162 1.95 182 1.95 103 1.98 184 1.98  41 2.96  61 2.96

  52  0.500  0.000  0.287- 184 1.95 204 1.95 203 1.95 183 1.95 185 1.98  62 2.96  42 2.96
  53  0.500  0.875  0.394- 165 1.95 185 1.95 166 1.95 186 1.95 187 1.98 188 1.98  43 2.96  63 2.96

  54  0.250  0.000  0.394- 108 1.95 128 1.95 187 1.95 207 1.95 189 1.98 182 1.98  44 2.96  64 2.96

  55  0.250  0.875  0.500- 169 1.95 170 1.95 189 1.95 190 1.95 111 1.98 192 1.98  45 2.96  65 2.96

  56  0.500  0.000  0.500- 191 1.95 192 1.95 211 1.95 212 1.95 186 1.98 193 1.98  46 2.96  66 2.96

  57  0.507  0.874  0.603- 196 1.87 173 1.88 193 1.90 174 2.00 194 2.03 195 2.04  47 2.97  67 2.98

  58  0.256  0.000  0.611- 197 1.86 195 1.92 215 1.92 136 2.02 116 2.02 190 2.11  48 2.96  68 2.96

  59  0.251  0.875  0.720- 198 1.83 178 1.84 200 2.02 119 2.04 197 2.10 177 2.10  49 2.96  69 2.96

  60  0.500  1.000  0.707- 194 1.80 200 1.94 220 1.94 219 1.96 199 1.96  70 2.95  50 2.96
  61  0.250  0.125  0.287- 181 1.95 201 1.95 182 1.95 202 1.95 123 1.98 204 1.98  51 2.96  71 2.96

  62  0.500  0.250  0.287- 204 1.95 224 1.95 223 1.95 203 1.95 205 1.98  72 2.96  52 2.96
  63  0.500  0.125  0.394- 185 1.95 205 1.95 186 1.95 206 1.95 207 1.98 208 1.98  53 2.96  73 2.96

  64  0.250  0.250  0.394- 128 1.95 148 1.95 207 1.95 227 1.95 209 1.98 202 1.98  54 2.96  74 2.96

  65  0.250  0.125  0.500- 189 1.95 190 1.95 209 1.95 210 1.95 131 1.98 212 1.98  55 2.96  75 2.96

  66  0.500  0.250  0.500- 211 1.95 212 1.95 231 1.95 232 1.95 206 1.98 213 1.99  56 2.96  76 2.96

  67  0.507  0.126  0.603- 216 1.88 213 1.88 193 1.90 214 2.00 194 2.03 215 2.04  77 2.97  57 2.98

  68  0.256  0.250  0.611- 217 1.86 235 1.92 215 1.92 156 2.02 136 2.02 210 2.11  78 2.96  58 2.96

  69  0.251  0.125  0.720- 198 1.83 218 1.84 220 2.02 139 2.04 217 2.10 197 2.10  59 2.96  79 2.96

  70  0.501  0.250  0.707- 214 1.80 239 1.92 240 1.94 219 1.95 220 1.96  60 2.95  80 2.96
  71  0.250  0.375  0.287- 201 1.95 221 1.95 202 1.95 222 1.95 143 1.98 224 1.98  41 2.96  61 2.96

  72  0.500  0.500  0.287- 164 1.95 224 1.95 223 1.95 163 1.95 225 1.98  62 2.96  42 2.96
  73  0.500  0.375  0.394- 205 1.95 225 1.95 206 1.95 226 1.95 227 1.98 228 1.98  43 2.96  63 2.96

  74  0.250  0.500  0.394-  88 1.95 148 1.95 167 1.95 227 1.95 222 1.98 229 1.98  44 2.96  64 2.96

  75  0.250  0.375  0.500- 209 1.95 210 1.95 229 1.95 230 1.95 151 1.98 232 1.98  45 2.96  65 2.96

  76  0.500  0.500  0.500- 171 1.95 172 1.95 231 1.95 232 1.95 226 1.98 233 2.00  46 2.96  66 2.96

  77  0.507  0.377  0.606- 236 1.87 233 1.90 213 1.93 234 1.98 214 2.01 235 2.04  47 2.90  67 2.97

  78  0.256  0.500  0.611- 237 1.86 175 1.92 235 1.92 156 2.02  96 2.02 230 2.11  48 2.96  68 2.96

  79  0.251  0.375  0.720- 218 1.83 238 1.84 159 2.03 240 2.03 217 2.10 237 2.10  69 2.96  49 2.96

  80  0.501  0.499  0.712- 234 1.91 240 1.93 180 1.94 239 1.96 179 1.99  70 2.96  50 2.97
  81  0.750  0.750  0.245-   1 1.95  11 1.95
  82  0.750  0.750  0.329-   1 1.95  11 1.95   4 1.98
  83  0.098  0.625  0.287-   2 1.95  32 1.95  41 1.98
  84  0.902  0.625  0.287-   2 1.95  32 1.95   1 1.98
  85  0.000  0.750  0.352-   3 1.95  13 1.95   2 1.98
  86  0.000  0.750  0.435-   3 1.95  13 1.95   6 1.98
  87  0.848  0.625  0.394-   4 1.95  34 1.95   3 1.98
  88  0.152  0.625  0.394-  44 1.95  74 1.95   3 1.98
  89  0.750  0.750  0.458-   5 1.95  15 1.95   4 1.98
  90  0.750  0.750  0.542-   5 1.95  15 1.95   8 2.09
  91  0.098  0.625  0.500-   6 1.95  36 1.95  45 1.98
  92  0.902  0.625  0.500-   6 1.95  36 1.95   5 1.98
  93  0.001  0.750  0.565-  17 1.90   7 1.90   6 2.00
  94  0.000  0.750  0.649-  10 1.81   7 2.02  17 2.02
  95  0.851  0.625  0.607-   8 1.93  38 1.93   7 2.03
  96  0.151  0.625  0.607-   7 1.87  78 2.02  48 2.02
  97  0.754  0.751  0.671-   8 1.87   9 2.08  19 2.09
  98  0.749  0.749  0.756-   9 1.83  19 1.84
  99  0.095  0.625  0.719-  40 1.94  10 1.95  49 2.03
 100  0.906  0.624  0.720-  40 1.95  10 1.96   9 2.02
 101  0.750  0.000  0.245-  11 1.95  21 1.95
 102  0.750  0.000  0.329-  11 1.95  21 1.95  14 1.98
 103  0.098  0.875  0.287-   2 1.95  12 1.95  51 1.98
 104  0.902  0.875  0.287-   2 1.95  12 1.95  11 1.98
 105  0.000  0.000  0.352-  13 1.95  23 1.95  12 1.98
 106  0.000  0.000  0.435-  13 1.95  23 1.95  16 1.98
 107  0.848  0.875  0.394-   4 1.95  14 1.95  13 1.98
 108  0.152  0.875  0.394-  44 1.95  54 1.95  13 1.98
 109  0.750  0.000  0.458-  15 1.95  25 1.95  14 1.98
 110  0.750  0.000  0.542-  15 1.95  25 1.95  18 2.10
 111  0.098  0.875  0.500-   6 1.95  16 1.95  55 1.98
 112  0.902  0.875  0.500-   6 1.95  16 1.95  15 1.98
 113  0.001  0.000  0.565-  27 1.90  17 1.90  16 2.00
 114  0.000  1.000  0.649-  20 1.81  17 2.02  27 2.02
 115  0.851  0.876  0.607-  18 1.92   8 1.93  17 2.04
 116  0.151  0.875  0.607-  17 1.87  48 2.02  58 2.02
 117  0.751  0.000  0.672-  18 1.87  29 2.09  19 2.09
 118  0.750  1.000  0.756-  29 1.83  19 1.84
 119  0.095  0.875  0.719-  10 1.94  20 1.95  59 2.04
 120  0.906  0.875  0.719-  10 1.94  20 1.95  19 2.04
 121  0.750  0.250  0.245-  21 1.95  31 1.95
 122  0.750  0.250  0.329-  21 1.95  31 1.95  24 1.98
 123  0.098  0.125  0.287-  12 1.95  22 1.95  61 1.98
 124  0.902  0.125  0.287-  12 1.95  22 1.95  21 1.98
 125  0.000  0.250  0.352-  23 1.95  33 1.95  22 1.98
 126  0.000  0.250  0.435-  23 1.95  33 1.95  26 1.98
 127  0.848  0.125  0.394-  14 1.95  24 1.95  23 1.98
 128  0.152  0.125  0.394-  54 1.95  64 1.95  23 1.98
 129  0.750  0.250  0.458-  25 1.95  35 1.95  24 1.98
 130  0.750  0.250  0.542-  25 1.95  35 1.95  28 2.09
 131  0.098  0.125  0.500-  16 1.95  26 1.95  65 1.98
 132  0.902  0.125  0.500-  16 1.95  26 1.95  25 1.98
 133  0.001  0.250  0.565-  27 1.90  37 1.90  26 2.00
 134  0.000  0.250  0.649-  30 1.81  37 2.02  27 2.02
 135  0.851  0.125  0.607-  18 1.93  28 1.93  27 2.04
 136  0.151  0.125  0.607-  27 1.86  58 2.02  68 2.02
 137  0.753  0.250  0.671-  28 1.87  39 2.06  29 2.10
 138  0.749  0.251  0.755-  39 1.83  29 1.84
 139  0.094  0.125  0.719-  30 1.94  20 1.95  69 2.04
 140  0.906  0.125  0.719-  30 1.94  20 1.95  29 2.04
 141  0.750  0.500  0.245-   1 1.95  31 1.95
 142  0.750  0.500  0.329-   1 1.95  31 1.95  34 1.98
 143  0.098  0.375  0.287-  22 1.95  32 1.95  71 1.98
 144  0.902  0.375  0.287-  22 1.95  32 1.95  31 1.98
 145  0.000  0.500  0.352-   3 1.95  33 1.95  32 1.98
 146  0.000  0.500  0.435-   3 1.95  33 1.95  36 1.98
 147  0.848  0.375  0.394-  24 1.95  34 1.95  33 1.98
 148  0.152  0.375  0.394-  64 1.95  74 1.95  33 1.98
 149  0.750  0.500  0.458-   5 1.95  35 1.95  34 1.98
 150  0.750  0.500  0.542-   5 1.95  35 1.95  38 2.10
 151  0.098  0.375  0.500-  26 1.95  36 1.95  75 1.98
 152  0.902  0.375  0.500-  26 1.95  36 1.95  35 1.98
 153  0.001  0.500  0.565-  37 1.90   7 1.90  36 2.00
 154  0.000  0.500  0.649-  40 1.81   7 2.02  37 2.02
 155  0.851  0.375  0.607-  28 1.93  38 1.93  37 2.03
 156  0.151  0.375  0.607-  37 1.87  78 2.02  68 2.02
 157  0.756  0.500  0.671-  38 1.86   9 2.09  39 2.10
 158  0.740  0.500  0.756-   9 1.87  39 1.87
 159  0.095  0.375  0.719-  40 1.94  30 1.95  79 2.03
 160  0.906  0.376  0.720-  40 1.95  30 1.96  39 2.01
 161  0.250  0.750  0.245-  41 1.95  51 1.95
 162  0.250  0.750  0.329-  41 1.95  51 1.95  44 1.98
 163  0.598  0.625  0.287-  42 1.95  72 1.95   1 1.98
 164  0.402  0.625  0.287-  42 1.95  72 1.95  41 1.98
 165  0.500  0.750  0.352-  43 1.95  53 1.95  42 1.98
 166  0.500  0.750  0.435-  43 1.95  53 1.95  46 1.98
 167  0.348  0.625  0.394-  44 1.95  74 1.95  43 1.98
 168  0.652  0.625  0.394-   4 1.95  34 1.95  43 1.98
 169  0.250  0.750  0.458-  45 1.95  55 1.95  44 1.98
 170  0.250  0.750  0.542-  45 1.95  55 1.95  48 2.10
 171  0.598  0.625  0.500-  46 1.95  76 1.95   5 1.98
 172  0.402  0.625  0.500-  46 1.95  76 1.95  45 1.98
 173  0.501  0.749  0.565-  57 1.88  47 1.93  46 1.99
 174  0.498  0.752  0.648-  50 1.80  57 2.00  47 2.01
 175  0.350  0.625  0.607-  48 1.92  78 1.92  47 2.04
 176  0.651  0.625  0.608-  47 1.87   8 2.01  38 2.02
 177  0.252  0.750  0.672-  48 1.87  49 2.09  59 2.10
 178  0.251  0.750  0.756-  49 1.83  59 1.84
 179  0.597  0.630  0.714-  50 1.91  80 1.99   9 2.00
 180  0.408  0.626  0.719-  80 1.94  50 1.94  49 2.05
 181  0.250  0.000  0.245-  51 1.95  61 1.95
 182  0.250  0.000  0.329-  51 1.95  61 1.95  54 1.98
 183  0.598  0.875  0.287-  42 1.95  52 1.95  11 1.98
 184  0.402  0.875  0.287-  42 1.95  52 1.95  51 1.98
 185  0.500  0.000  0.352-  53 1.95  63 1.95  52 1.98
 186  0.500  0.000  0.435-  53 1.95  63 1.95  56 1.98
 187  0.348  0.875  0.394-  44 1.95  54 1.95  53 1.98
 188  0.652  0.875  0.394-   4 1.95  14 1.95  53 1.98
 189  0.250  0.000  0.458-  55 1.95  65 1.95  54 1.98
 190  0.250  0.000  0.542-  55 1.95  65 1.95  58 2.11
 191  0.598  0.875  0.500-  46 1.95  56 1.95  15 1.98
 192  0.402  0.875  0.500-  46 1.95  56 1.95  55 1.98
 193  0.501  0.000  0.565-  57 1.90  67 1.90  56 1.98
 194  0.500  1.000  0.648-  60 1.80  57 2.03  67 2.03
 195  0.350  0.875  0.607-  58 1.92  48 1.92  57 2.04
 196  0.651  0.875  0.607-  57 1.87   8 2.02  18 2.02
 197  0.251  1.000  0.672-  58 1.86  59 2.10  69 2.10
 198  0.250  0.000  0.756-  59 1.83  69 1.83
 199  0.595  0.875  0.718-  50 1.95  60 1.96  19 2.02
 200  0.406  0.876  0.718-  60 1.94  50 1.96  59 2.02
 201  0.250  0.250  0.245-  61 1.95  71 1.95
 202  0.250  0.250  0.329-  61 1.95  71 1.95  64 1.98
 203  0.598  0.125  0.287-  52 1.95  62 1.95  21 1.98
 204  0.402  0.125  0.287-  52 1.95  62 1.95  61 1.98
 205  0.500  0.250  0.352-  63 1.95  73 1.95  62 1.98
 206  0.500  0.250  0.435-  63 1.95  73 1.95  66 1.98
 207  0.348  0.125  0.394-  54 1.95  64 1.95  63 1.98
 208  0.652  0.125  0.394-  14 1.95  24 1.95  63 1.98
 209  0.250  0.250  0.458-  65 1.95  75 1.95  64 1.98
 210  0.250  0.250  0.542-  65 1.95  75 1.95  68 2.11
 211  0.598  0.125  0.500-  56 1.95  66 1.95  25 1.98
 212  0.402  0.125  0.500-  56 1.95  66 1.95  65 1.98
 213  0.501  0.251  0.565-  67 1.88  77 1.93  66 1.99
 214  0.499  0.248  0.648-  70 1.80  67 2.00  77 2.01
 215  0.350  0.125  0.607-  58 1.92  68 1.92  67 2.04
 216  0.651  0.125  0.607-  67 1.88  28 2.01  18 2.01
 217  0.251  0.250  0.672-  68 1.86  79 2.10  69 2.10
 218  0.251  0.250  0.756-  79 1.83  69 1.84
 219  0.595  0.125  0.718-  70 1.95  60 1.96  29 2.02
 220  0.406  0.124  0.718-  60 1.94  70 1.96  69 2.02
 221  0.250  0.500  0.245-  41 1.95  71 1.95
 222  0.250  0.500  0.329-  41 1.95  71 1.95  74 1.98
 223  0.598  0.375  0.287-  62 1.95  72 1.95  31 1.98
 224  0.402  0.375  0.287-  62 1.95  72 1.95  71 1.98
 225  0.500  0.500  0.352-  43 1.95  73 1.95  72 1.98
 226  0.500  0.500  0.435-  43 1.95  73 1.95  76 1.98
 227  0.348  0.375  0.394-  64 1.95  74 1.95  73 1.98
 228  0.652  0.375  0.394-  24 1.95  34 1.95  73 1.98
 229  0.250  0.500  0.458-  45 1.95  75 1.95  74 1.98
 230  0.250  0.500  0.542-  45 1.95  75 1.95  78 2.11
 231  0.598  0.375  0.500-  66 1.95  76 1.95  35 1.98
 232  0.402  0.375  0.500-  66 1.95  76 1.95  75 1.98
 233  0.501  0.500  0.566-  47 1.90  77 1.90  76 2.00
 234  0.500  0.500  0.650-  80 1.91  47 1.98  77 1.98
 235  0.350  0.375  0.607-  68 1.92  78 1.92  77 2.04
 236  0.651  0.375  0.608-  77 1.87  28 2.01  38 2.02
 237  0.250  0.500  0.672-  78 1.86  49 2.09  79 2.10
 238  0.252  0.500  0.756-  79 1.84  49 1.84
 239  0.597  0.371  0.714-  70 1.92  80 1.96  39 2.02
 240  0.407  0.374  0.718-  80 1.93  70 1.94  79 2.03


IMPORTANT INFORMATION: All symmetrisations will be switched off!
NOSYMM: (Re-)initialisation of all symmetry stuff for point group C_1.


----------------------------------------------------------------------------------------

                                     Primitive cell                                     

  volume of cell :    4700.2642

  direct lattice vectors                    reciprocal lattice vectors
    13.003962940  0.000000000  0.000000000     0.076899635  0.000000000  0.000000000
     0.000000000 11.830322230  0.000000000     0.000000000  0.084528551  0.000000000
     0.000000000  0.000000000 30.552726600     0.000000000  0.000000000  0.032730303

  length of vectors
    13.003962940 11.830322230 30.552726600     0.076899635  0.084528551  0.032730303

  position of ions in fractional coordinates (direct lattice)
     0.750000000  0.625000000  0.287188176
     0.000000000  0.750000000  0.287188176
     0.000000000  0.625000000  0.393594088
     0.750000000  0.750000000  0.393594088
     0.750000000  0.625000000  0.500000000
     0.000000000  0.750000000  0.500000000
     0.007165231  0.625060772  0.604040859
     0.756333670  0.750121339  0.610208775
     0.750930298  0.625768250  0.719100628
     0.000168615  0.750324118  0.708174463
     0.750000000  0.875000000  0.287188176
     0.000000000  0.000000000  0.287188176
     0.000000000  0.875000000  0.393594088
     0.750000000  0.000000000  0.393594088
     0.750000000  0.875000000  0.500000000
     0.000000000  0.000000000  0.500000000
     0.007360963  0.875038380  0.604107829
     0.755924618  0.000030496  0.610519433
     0.749846863  0.874911743  0.720165492
     0.000485975  0.999934327  0.708143591
     0.750000000  0.125000000  0.287188176
     0.000000000  0.250000000  0.287188176
     0.000000000  0.125000000  0.393594088
     0.750000000  0.250000000  0.393594088
     0.750000000  0.125000000  0.500000000
     0.000000000  0.250000000  0.500000000
     0.007484604  0.124967508  0.604103343
     0.756255206  0.249865040  0.610146915
     0.749807439  0.124186989  0.720169955
     0.000403934  0.249602608  0.708167166
     0.750000000  0.375000000  0.287188176
     0.000000000  0.500000000  0.287188176
     0.000000000  0.375000000  0.393594088
     0.750000000  0.500000000  0.393594088
     0.750000000  0.375000000  0.500000000
     0.000000000  0.500000000  0.500000000
     0.007193764  0.374991859  0.604032947
     0.756494178  0.499997612  0.610366772
     0.751623630  0.373198997  0.719132256
     0.001000375  0.500095441  0.708107094
     0.250000000  0.625000000  0.287188176
     0.500000000  0.750000000  0.287188176
     0.500000000  0.625000000  0.393594088
     0.250000000  0.750000000  0.393594088
     0.250000000  0.625000000  0.500000000
     0.500000000  0.750000000  0.500000000
     0.507378090  0.622672616  0.605370498
     0.256337598  0.749966696  0.610465432
     0.250513805  0.625267790  0.720057081
     0.500947288  0.750095336  0.706874742
     0.250000000  0.875000000  0.287188176
     0.500000000  0.000000000  0.287188176
     0.500000000  0.875000000  0.393594088
     0.250000000  0.000000000  0.393594088
     0.250000000  0.875000000  0.500000000
     0.500000000  0.000000000  0.500000000
     0.507285533  0.874020949  0.603020885
     0.256221130  0.000006580  0.610574329
     0.251254855  0.875106466  0.720254320
     0.499704678  0.999934146  0.707106924
     0.250000000  0.125000000  0.287188176
     0.500000000  0.250000000  0.287188176
     0.500000000  0.125000000  0.393594088
     0.250000000  0.250000000  0.393594088
     0.250000000  0.125000000  0.500000000
     0.500000000  0.250000000  0.500000000
     0.507230575  0.126138828  0.603124513
     0.256272105  0.250110785  0.610559235
     0.251074082  0.124977060  0.720223082
     0.500864011  0.249690783  0.707239733
     0.250000000  0.375000000  0.287188176
     0.500000000  0.500000000  0.287188176
     0.500000000  0.375000000  0.393594088
     0.250000000  0.500000000  0.393594088
     0.250000000  0.375000000  0.500000000
     0.500000000  0.500000000  0.500000000
     0.507346769  0.377352656  0.605540938
     0.255890961  0.500050120  0.610606060
     0.250512332  0.374958300  0.720193565
     0.500919965  0.499409035  0.712037756
     0.750000000  0.750000000  0.245477273
     0.750000000  0.750000000  0.328899080
     0.097999497  0.625000000  0.287188176
     0.902000503  0.625000000  0.287188176
     0.000000000  0.750000000  0.351883185
     0.000000000  0.750000000  0.435304992
     0.847999497  0.625000000  0.393594088
     0.152000503  0.625000000  0.393594088
     0.750000000  0.750000000  0.458289097
     0.750000000  0.750000000  0.541710903
     0.097999497  0.625000000  0.500000000
     0.902000503  0.625000000  0.500000000
     0.000773775  0.750138917  0.565324883
     0.000010847  0.749845219  0.649064981
     0.851035874  0.625283713  0.606546701
     0.150626612  0.625197680  0.607044377
     0.754119429  0.750877798  0.671406569
     0.748700675  0.748886827  0.755555044
     0.094782561  0.625087328  0.718778836
     0.906450937  0.624259872  0.719690552
     0.750000000  0.000000000  0.245477273
     0.750000000  0.000000000  0.328899080
     0.097999497  0.875000000  0.287188176
     0.902000503  0.875000000  0.287188176
     0.000000000  0.000000000  0.351883185
     0.000000000  0.000000000  0.435304992
     0.847999497  0.875000000  0.393594088
     0.152000503  0.875000000  0.393594088
     0.750000000  0.000000000  0.458289097
     0.750000000  0.000000000  0.541710903
     0.097999497  0.875000000  0.500000000
     0.902000503  0.875000000  0.500000000
     0.000824724  0.000016597  0.565342444
     0.000406876  0.999993198  0.649036886
     0.850819245  0.875505349  0.606846140
     0.150630374  0.874870071  0.607122440
     0.751152608  0.000028826  0.671702615
     0.750337004  0.999753773  0.755865711
     0.094590580  0.874525023  0.718543993
     0.906466016  0.875009998  0.719173074
     0.750000000  0.250000000  0.245477273
     0.750000000  0.250000000  0.328899080
     0.097999497  0.125000000  0.287188176
     0.902000503  0.125000000  0.287188176
     0.000000000  0.250000000  0.351883185
     0.000000000  0.250000000  0.435304992
     0.847999497  0.125000000  0.393594088
     0.152000503  0.125000000  0.393594088
     0.750000000  0.250000000  0.458289097
     0.750000000  0.250000000  0.541710903
     0.097999497  0.125000000  0.500000000
     0.902000503  0.125000000  0.500000000
     0.000752135  0.249885914  0.565331318
     0.000204861  0.250180570  0.649073114
     0.850779039  0.124725653  0.606940370
     0.150617610  0.125032825  0.607045896
     0.753319725  0.249739472  0.671432581
     0.749469617  0.250601715  0.755490967
     0.094476575  0.125296970  0.718665216
     0.906421456  0.124956983  0.718976793
     0.750000000  0.500000000  0.245477273
     0.750000000  0.500000000  0.328899080
     0.097999497  0.375000000  0.287188176
     0.902000503  0.375000000  0.287188176
     0.000000000  0.500000000  0.351883185
     0.000000000  0.500000000  0.435304992
     0.847999497  0.375000000  0.393594088
     0.152000503  0.375000000  0.393594088
     0.750000000  0.500000000  0.458289097
     0.750000000  0.500000000  0.541710903
     0.097999497  0.375000000  0.500000000
     0.902000503  0.375000000  0.500000000
     0.000852250  0.500020335  0.565304010
     0.000248850  0.500037396  0.649007155
     0.851018348  0.374709186  0.606576172
     0.150628300  0.374974644  0.607019031
     0.755662531  0.500061759  0.671269465
     0.739771334  0.499802732  0.755605092
     0.094706721  0.375078943  0.718779799
     0.906490998  0.375683620  0.719672728
     0.250000000  0.750000000  0.245477273
     0.250000000  0.750000000  0.328899080
     0.597999497  0.625000000  0.287188176
     0.402000503  0.625000000  0.287188176
     0.500000000  0.750000000  0.351883185
     0.500000000  0.750000000  0.435304992
     0.347999497  0.625000000  0.393594088
     0.652000503  0.625000000  0.393594088
     0.250000000  0.750000000  0.458289097
     0.250000000  0.750000000  0.541710903
     0.597999497  0.625000000  0.500000000
     0.402000503  0.625000000  0.500000000
     0.500962568  0.748727825  0.565135269
     0.498252248  0.751601336  0.647985020
     0.350209744  0.624922424  0.606965290
     0.651444608  0.625294914  0.607559515
     0.251502087  0.749748187  0.671572167
     0.251128345  0.749812390  0.755817120
     0.597385902  0.629792180  0.713543116
     0.407763308  0.625610647  0.719224289
     0.250000000  0.000000000  0.245477273
     0.250000000  0.000000000  0.328899080
     0.597999497  0.875000000  0.287188176
     0.402000503  0.875000000  0.287188176
     0.500000000  0.000000000  0.351883185
     0.500000000  0.000000000  0.435304992
     0.347999497  0.875000000  0.393594088
     0.652000503  0.875000000  0.393594088
     0.250000000  0.000000000  0.458289097
     0.250000000  0.000000000  0.541710903
     0.597999497  0.875000000  0.500000000
     0.402000503  0.875000000  0.500000000
     0.500548466  0.000148402  0.564851985
     0.500477781  0.999949453  0.648246571
     0.350320775  0.875232761  0.606677051
     0.651106423  0.874865607  0.606949395
     0.250611392  0.999951388  0.671524146
     0.249958722  0.000003593  0.755785401
     0.594742983  0.874884745  0.718100810
     0.406295891  0.875955612  0.718451329
     0.250000000  0.250000000  0.245477273
     0.250000000  0.250000000  0.328899080
     0.597999497  0.125000000  0.287188176
     0.402000503  0.125000000  0.287188176
     0.500000000  0.250000000  0.351883185
     0.500000000  0.250000000  0.435304992
     0.347999497  0.125000000  0.393594088
     0.652000503  0.125000000  0.393594088
     0.250000000  0.250000000  0.458289097
     0.250000000  0.250000000  0.541710903
     0.597999497  0.125000000  0.500000000
     0.402000503  0.125000000  0.500000000
     0.500877884  0.251402245  0.565241839
     0.499276184  0.248408624  0.648277799
     0.350401394  0.124911601  0.606821010
     0.651155500  0.125161046  0.606910431
     0.250540711  0.249956375  0.671524978
     0.250911096  0.250190817  0.755736594
     0.594789332  0.124736122  0.718140302
     0.406209484  0.124270658  0.718318087
     0.250000000  0.500000000  0.245477273
     0.250000000  0.500000000  0.328899080
     0.597999497  0.375000000  0.287188176
     0.402000503  0.375000000  0.287188176
     0.500000000  0.500000000  0.351883185
     0.500000000  0.500000000  0.435304992
     0.347999497  0.375000000  0.393594088
     0.652000503  0.375000000  0.393594088
     0.250000000  0.500000000  0.458289097
     0.250000000  0.500000000  0.541710903
     0.597999497  0.375000000  0.500000000
     0.402000503  0.375000000  0.500000000
     0.501048841  0.499872022  0.565519471
     0.500087814  0.500356220  0.649502876
     0.350280707  0.375046434  0.607178894
     0.651408992  0.374972991  0.607548991
     0.250421216  0.500335800  0.671582383
     0.252282219  0.500201623  0.755732540
     0.596867917  0.371466802  0.714480780
     0.406722587  0.374024030  0.717846825

  ion indices of the primitive-cell ions
   primitive index   ion index
                 1           1
                 2           2
                 3           3
                 4           4
                 5           5
                 6           6
                 7           7
                 8           8
                 9           9
                10          10
                11          11
                12          12
                13          13
                14          14
                15          15
                16          16
                17          17
                18          18
                19          19
                20          20
                21          21
                22          22
                23          23
                24          24
                25          25
                26          26
                27          27
                28          28
                29          29
                30          30
                31          31
                32          32
                33          33
                34          34
                35          35
                36          36
                37          37
                38          38
                39          39
                40          40
                41          41
                42          42
                43          43
                44          44
                45          45
                46          46
                47          47
                48          48
                49          49
                50          50
                51          51
                52          52
                53          53
                54          54
                55          55
                56          56
                57          57
                58          58
                59          59
                60          60
                61          61
                62          62
                63          63
                64          64
                65          65
                66          66
                67          67
                68          68
                69          69
                70          70
                71          71
                72          72
                73          73
                74          74
                75          75
                76          76
                77          77
                78          78
                79          79
                80          80
                81          81
                82          82
                83          83
                84          84
                85          85
                86          86
                87          87
                88          88
                89          89
                90          90
                91          91
                92          92
                93          93
                94          94
                95          95
                96          96
                97          97
                98          98
                99          99
               100         100
               101         101
               102         102
               103         103
               104         104
               105         105
               106         106
               107         107
               108         108
               109         109
               110         110
               111         111
               112         112
               113         113
               114         114
               115         115
               116         116
               117         117
               118         118
               119         119
               120         120
               121         121
               122         122
               123         123
               124         124
               125         125
               126         126
               127         127
               128         128
               129         129
               130         130
               131         131
               132         132
               133         133
               134         134
               135         135
               136         136
               137         137
               138         138
               139         139
               140         140
               141         141
               142         142
               143         143
               144         144
               145         145
               146         146
               147         147
               148         148
               149         149
               150         150
               151         151
               152         152
               153         153
               154         154
               155         155
               156         156
               157         157
               158         158
               159         159
               160         160
               161         161
               162         162
               163         163
               164         164
               165         165
               166         166
               167         167
               168         168
               169         169
               170         170
               171         171
               172         172
               173         173
               174         174
               175         175
               176         176
               177         177
               178         178
               179         179
               180         180
               181         181
               182         182
               183         183
               184         184
               185         185
               186         186
               187         187
               188         188
               189         189
               190         190
               191         191
               192         192
               193         193
               194         194
               195         195
               196         196
               197         197
               198         198
               199         199
               200         200
               201         201
               202         202
               203         203
               204         204
               205         205
               206         206
               207         207
               208         208
               209         209
               210         210
               211         211
               212         212
               213         213
               214         214
               215         215
               216         216
               217         217
               218         218
               219         219
               220         220
               221         221
               222         222
               223         223
               224         224
               225         225
               226         226
               227         227
               228         228
               229         229
               230         230
               231         231
               232         232
               233         233
               234         234
               235         235
               236         236
               237         237
               238         238
               239         239
               240         240

----------------------------------------------------------------------------------------



 KPOINTS: pymatgen v2020.8.13 with grid density = 

Automatic generation of k-mesh.
 Grid dimensions read from file:
 generate k-points for:    2    2    1

 Generating k-lattice:

  Cartesian coordinates                     Fractional coordinates (reciprocal lattice)
     0.038449817  0.000000000  0.000000000     0.500000000  0.000000000  0.000000000
     0.000000000  0.042264276  0.000000000     0.000000000  0.500000000  0.000000000
     0.000000000  0.000000000  0.032730303     0.000000000  0.000000000  1.000000000

  Length of vectors
     0.038449817  0.042264276  0.032730303

  Shift w.r.t. Gamma in fractional coordinates (k-lattice)
     0.000000000  0.000000000  0.000000000

 
 Subroutine IBZKPT returns following result:
 ===========================================
 
 Found      4 irreducible k-points:
 
 Following reciprocal coordinates:
            Coordinates               Weight
  0.000000  0.000000  0.000000      1.000000
  0.500000  0.000000  0.000000      1.000000
  0.000000  0.500000  0.000000      1.000000
  0.500000  0.500000  0.000000      1.000000
 
 Following cartesian coordinates:
            Coordinates               Weight
  0.000000  0.000000  0.000000      1.000000
  0.038450  0.000000  0.000000      1.000000
  0.000000  0.042264  0.000000      1.000000
  0.038450  0.042264  0.000000      1.000000
 


--------------------------------------------------------------------------------------------------------




 Dimension of arrays:
   k-points           NKPTS =      4   k-points in BZ     NKDIM =      4   number of bands    NBANDS=   1056
   number of dos      NEDOS =    301   number of ions     NIONS =    240
   non local maximal  LDIM  =      6   non local SUM 2l+1 LMDIM =     18
   total plane-waves  NPLWV = ******
   max r-space proj   IRMAX =      1   max aug-charges    IRDMAX=  21607
   dimension x,y,z NGX =   108 NGY =   96 NGZ =  250
   dimension x,y,z NGXF=   216 NGYF=  192 NGZF=  500
   support grid    NGXF=   216 NGYF=  192 NGZF=  500
   ions per type =              80 160
   NGX,Y,Z   is equivalent  to a cutoff of  13.81, 13.49, 13.60 a.u.
   NGXF,Y,Z  is equivalent  to a cutoff of  27.61, 26.98, 27.21 a.u.

 SYSTEM =  TiO2                                    
 POSCAR =  Ti  O                                   

--------------------------------------------------------------------------------------------------------


  energy-cutoff  :      600.00
  volume of cell :     4700.26
      direct lattice vectors                 reciprocal lattice vectors
    13.003962940  0.000000000  0.000000000     0.076899635  0.000000000  0.000000000
     0.000000000 11.830322230  0.000000000     0.000000000  0.084528551  0.000000000
     0.000000000  0.000000000 30.552726600     0.000000000  0.000000000  0.032730303

  length of vectors
    13.003962940 11.830322230 30.552726600     0.076899635  0.084528551  0.032730303



 k-points in units of 2pi/SCALE and weight: pymatgen v2020.8.13 with grid density = 
   0.00000000  0.00000000  0.00000000       0.250
   0.03844982  0.00000000  0.00000000       0.250
   0.00000000  0.04226428  0.00000000       0.250
   0.03844982  0.04226428  0.00000000       0.250

 k-points in reciprocal lattice and weights: pymatgen v2020.8.13 with grid density = 
   0.00000000  0.00000000  0.00000000       0.250
   0.50000000  0.00000000  0.00000000       0.250
   0.00000000  0.50000000  0.00000000       0.250
   0.50000000  0.50000000  0.00000000       0.250

 position of ions in fractional coordinates (direct lattice) 
   0.75000000  0.62500000  0.28718818
   0.00000000  0.75000000  0.28718818
   0.00000000  0.62500000  0.39359409
   0.75000000  0.75000000  0.39359409
   0.75000000  0.62500000  0.50000000
   0.00000000  0.75000000  0.50000000
   0.00716523  0.62506077  0.60404086
   0.75633367  0.75012134  0.61020877
   0.75093030  0.62576825  0.71910063
   0.00016861  0.75032412  0.70817446
   0.75000000  0.87500000  0.28718818
   0.00000000  0.00000000  0.28718818
   0.00000000  0.87500000  0.39359409
   0.75000000  0.00000000  0.39359409
   0.75000000  0.87500000  0.50000000
   0.00000000  0.00000000  0.50000000
   0.00736096  0.87503838  0.60410783
   0.75592462  0.00003050  0.61051943
   0.74984686  0.87491174  0.72016549
   0.00048597  0.99993433  0.70814359
   0.75000000  0.12500000  0.28718818
   0.00000000  0.25000000  0.28718818
   0.00000000  0.12500000  0.39359409
   0.75000000  0.25000000  0.39359409
   0.75000000  0.12500000  0.50000000
   0.00000000  0.25000000  0.50000000
   0.00748460  0.12496751  0.60410334
   0.75625521  0.24986504  0.61014691
   0.74980744  0.12418699  0.72016995
   0.00040393  0.24960261  0.70816717
   0.75000000  0.37500000  0.28718818
   0.00000000  0.50000000  0.28718818
   0.00000000  0.37500000  0.39359409
   0.75000000  0.50000000  0.39359409
   0.75000000  0.37500000  0.50000000
   0.00000000  0.50000000  0.50000000
   0.00719376  0.37499186  0.60403295
   0.75649418  0.49999761  0.61036677
   0.75162363  0.37319900  0.71913226
   0.00100038  0.50009544  0.70810709
   0.25000000  0.62500000  0.28718818
   0.50000000  0.75000000  0.28718818
   0.50000000  0.62500000  0.39359409
   0.25000000  0.75000000  0.39359409
   0.25000000  0.62500000  0.50000000
   0.50000000  0.75000000  0.50000000
   0.50737809  0.62267262  0.60537050
   0.25633760  0.74996670  0.61046543
   0.25051380  0.62526779  0.72005708
   0.50094729  0.75009534  0.70687474
   0.25000000  0.87500000  0.28718818
   0.50000000  0.00000000  0.28718818
   0.50000000  0.87500000  0.39359409
   0.25000000  0.00000000  0.39359409
   0.25000000  0.87500000  0.50000000
   0.50000000  0.00000000  0.50000000
   0.50728553  0.87402095  0.60302089
   0.25622113  0.00000658  0.61057433
   0.25125485  0.87510647  0.72025432
   0.49970468  0.99993415  0.70710692
   0.25000000  0.12500000  0.28718818
   0.50000000  0.25000000  0.28718818
   0.50000000  0.12500000  0.39359409
   0.25000000  0.25000000  0.39359409
   0.25000000  0.12500000  0.50000000
   0.50000000  0.25000000  0.50000000
   0.50723058  0.12613883  0.60312451
   0.25627210  0.25011079  0.61055924
   0.25107408  0.12497706  0.72022308
   0.50086401  0.24969078  0.70723973
   0.25000000  0.37500000  0.28718818
   0.50000000  0.50000000  0.28718818
   0.50000000  0.37500000  0.39359409
   0.25000000  0.50000000  0.39359409
   0.25000000  0.37500000  0.50000000
   0.50000000  0.50000000  0.50000000
   0.50734677  0.37735266  0.60554094
   0.25589096  0.50005012  0.61060606
   0.25051233  0.37495830  0.72019356
   0.50091996  0.49940903  0.71203776
   0.75000000  0.75000000  0.24547727
   0.75000000  0.75000000  0.32889908
   0.09799950  0.62500000  0.28718818
   0.90200050  0.62500000  0.28718818
   0.00000000  0.75000000  0.35188318
   0.00000000  0.75000000  0.43530499
   0.84799950  0.62500000  0.39359409
   0.15200050  0.62500000  0.39359409
   0.75000000  0.75000000  0.45828910
   0.75000000  0.75000000  0.54171090
   0.09799950  0.62500000  0.50000000
   0.90200050  0.62500000  0.50000000
   0.00077377  0.75013892  0.56532488
   0.00001085  0.74984522  0.64906498
   0.85103587  0.62528371  0.60654670
   0.15062661  0.62519768  0.60704438
   0.75411943  0.75087780  0.67140657
   0.74870068  0.74888683  0.75555504
   0.09478256  0.62508733  0.71877884
   0.90645094  0.62425987  0.71969055
   0.75000000  0.00000000  0.24547727
   0.75000000  0.00000000  0.32889908
   0.09799950  0.87500000  0.28718818
   0.90200050  0.87500000  0.28718818
   0.00000000  0.00000000  0.35188318
   0.00000000  0.00000000  0.43530499
   0.84799950  0.87500000  0.39359409
   0.15200050  0.87500000  0.39359409
   0.75000000  0.00000000  0.45828910
   0.75000000  0.00000000  0.54171090
   0.09799950  0.87500000  0.50000000
   0.90200050  0.87500000  0.50000000
   0.00082472  0.00001660  0.56534244
   0.00040688  0.99999320  0.64903689
   0.85081924  0.87550535  0.60684614
   0.15063037  0.87487007  0.60712244
   0.75115261  0.00002883  0.67170262
   0.75033700  0.99975377  0.75586571
   0.09459058  0.87452502  0.71854399
   0.90646602  0.87501000  0.71917307
   0.75000000  0.25000000  0.24547727
   0.75000000  0.25000000  0.32889908
   0.09799950  0.12500000  0.28718818
   0.90200050  0.12500000  0.28718818
   0.00000000  0.25000000  0.35188318
   0.00000000  0.25000000  0.43530499
   0.84799950  0.12500000  0.39359409
   0.15200050  0.12500000  0.39359409
   0.75000000  0.25000000  0.45828910
   0.75000000  0.25000000  0.54171090
   0.09799950  0.12500000  0.50000000
   0.90200050  0.12500000  0.50000000
   0.00075213  0.24988591  0.56533132
   0.00020486  0.25018057  0.64907311
   0.85077904  0.12472565  0.60694037
   0.15061761  0.12503283  0.60704590
   0.75331972  0.24973947  0.67143258
   0.74946962  0.25060171  0.75549097
   0.09447658  0.12529697  0.71866522
   0.90642146  0.12495698  0.71897679
   0.75000000  0.50000000  0.24547727
   0.75000000  0.50000000  0.32889908
   0.09799950  0.37500000  0.28718818
   0.90200050  0.37500000  0.28718818
   0.00000000  0.50000000  0.35188318
   0.00000000  0.50000000  0.43530499
   0.84799950  0.37500000  0.39359409
   0.15200050  0.37500000  0.39359409
   0.75000000  0.50000000  0.45828910
   0.75000000  0.50000000  0.54171090
   0.09799950  0.37500000  0.50000000
   0.90200050  0.37500000  0.50000000
   0.00085225  0.50002033  0.56530401
   0.00024885  0.50003740  0.64900715
   0.85101835  0.37470919  0.60657617
   0.15062830  0.37497464  0.60701903
   0.75566253  0.50006176  0.67126946
   0.73977133  0.49980273  0.75560509
   0.09470672  0.37507894  0.71877980
   0.90649100  0.37568362  0.71967273
   0.25000000  0.75000000  0.24547727
   0.25000000  0.75000000  0.32889908
   0.59799950  0.62500000  0.28718818
   0.40200050  0.62500000  0.28718818
   0.50000000  0.75000000  0.35188318
   0.50000000  0.75000000  0.43530499
   0.34799950  0.62500000  0.39359409
   0.65200050  0.62500000  0.39359409
   0.25000000  0.75000000  0.45828910
   0.25000000  0.75000000  0.54171090
   0.59799950  0.62500000  0.50000000
   0.40200050  0.62500000  0.50000000
   0.50096257  0.74872783  0.56513527
   0.49825225  0.75160134  0.64798502
   0.35020974  0.62492242  0.60696529
   0.65144461  0.62529491  0.60755951
   0.25150209  0.74974819  0.67157217
   0.25112834  0.74981239  0.75581712
   0.59738590  0.62979218  0.71354312
   0.40776331  0.62561065  0.71922429
   0.25000000  0.00000000  0.24547727
   0.25000000  0.00000000  0.32889908
   0.59799950  0.87500000  0.28718818
   0.40200050  0.87500000  0.28718818
   0.50000000  0.00000000  0.35188318
   0.50000000  0.00000000  0.43530499
   0.34799950  0.87500000  0.39359409
   0.65200050  0.87500000  0.39359409
   0.25000000  0.00000000  0.45828910
   0.25000000  0.00000000  0.54171090
   0.59799950  0.87500000  0.50000000
   0.40200050  0.87500000  0.50000000
   0.50054847  0.00014840  0.56485199
   0.50047778  0.99994945  0.64824657
   0.35032078  0.87523276  0.60667705
   0.65110642  0.87486561  0.60694939
   0.25061139  0.99995139  0.67152415
   0.24995872  0.00000359  0.75578540
   0.59474298  0.87488475  0.71810081
   0.40629589  0.87595561  0.71845133
   0.25000000  0.25000000  0.24547727
   0.25000000  0.25000000  0.32889908
   0.59799950  0.12500000  0.28718818
   0.40200050  0.12500000  0.28718818
   0.50000000  0.25000000  0.35188318
   0.50000000  0.25000000  0.43530499
   0.34799950  0.12500000  0.39359409
   0.65200050  0.12500000  0.39359409
   0.25000000  0.25000000  0.45828910
   0.25000000  0.25000000  0.54171090
   0.59799950  0.12500000  0.50000000
   0.40200050  0.12500000  0.50000000
   0.50087788  0.25140225  0.56524184
   0.49927618  0.24840862  0.64827780
   0.35040139  0.12491160  0.60682101
   0.65115550  0.12516105  0.60691043
   0.25054071  0.24995637  0.67152498
   0.25091110  0.25019082  0.75573659
   0.59478933  0.12473612  0.71814030
   0.40620948  0.12427066  0.71831809
   0.25000000  0.50000000  0.24547727
   0.25000000  0.50000000  0.32889908
   0.59799950  0.37500000  0.28718818
   0.40200050  0.37500000  0.28718818
   0.50000000  0.50000000  0.35188318
   0.50000000  0.50000000  0.43530499
   0.34799950  0.37500000  0.39359409
   0.65200050  0.37500000  0.39359409
   0.25000000  0.50000000  0.45828910
   0.25000000  0.50000000  0.54171090
   0.59799950  0.37500000  0.50000000
   0.40200050  0.37500000  0.50000000
   0.50104884  0.49987202  0.56551947
   0.50008781  0.50035622  0.64950288
   0.35028071  0.37504643  0.60717889
   0.65140899  0.37497299  0.60754899
   0.25042122  0.50033580  0.67158238
   0.25228222  0.50020162  0.75573254
   0.59686792  0.37146680  0.71448078
   0.40672259  0.37402403  0.71784683

 position of ions in cartesian coordinates  (Angst):
   9.75297220  7.39395139  8.77438183
   0.00000000  8.87274167  8.77438183
   0.00000000  7.39395139 12.02537257
   9.75297220  8.87274167 12.02537257
   9.75297220  7.39395139 15.27636330
   0.00000000  8.87274167 15.27636330
   0.09317640  7.39467035 18.45509523
   9.83533502  8.87417715 18.64354186
   9.76506976  7.40304004 21.97048490
   0.00219266  8.87657609 21.63666076
   9.75297220 10.35153195  8.77438183
   0.00000000  0.00000000  8.77438183
   0.00000000 10.35153195 12.02537257
   9.75297220  0.00000000 12.02537257
   9.75297220 10.35153195 15.27636330
   0.00000000  0.00000000 15.27636330
   0.09572169 10.35198600 18.45714135
   9.83001572  0.00036078 18.65303332
   9.75098081 10.35048784 22.00301939
   0.00631959 11.82954529 21.63571753
   9.75297220  1.47879028  8.77438183
   0.00000000  2.95758056  8.77438183
   0.00000000  1.47879028 12.02537257
   9.75297220  2.95758056 12.02537257
   9.75297220  1.47879028 15.27636330
   0.00000000  2.95758056 15.27636330
   0.09732952  1.47840589 18.45700429
   9.83431467  2.95598394 18.64165187
   9.75046815  1.46917209 22.00315574
   0.00525274  2.95287928 21.63643781
   9.75297220  4.43637084  8.77438183
   0.00000000  5.91516111  8.77438183
   0.00000000  4.43637084 12.02537257
   9.75297220  5.91516111 12.02537257
   9.75297220  4.43637084 15.27636330
   0.00000000  5.91516111 15.27636330
   0.09354744  4.43627452 18.45485350
   9.83742225  5.91513286 18.64836912
   9.77408583  4.41506439 21.97145121
   0.01300884  5.91629021 21.63460245
   3.25099073  7.39395139  8.77438183
   6.50198147  8.87274167  8.77438183
   6.50198147  7.39395139 12.02537257
   3.25099073  8.87274167 12.02537257
   3.25099073  7.39395139 15.27636330
   6.50198147  8.87274167 15.27636330
   6.59792588  7.36641770 18.49571932
   3.33340462  8.87234768 18.65138344
   3.25767223  7.39711944 21.99970714
   6.51429997  8.87386952 21.59695074
   3.25099073 10.35153195  8.77438183
   6.50198147  0.00000000  8.77438183
   6.50198147 10.35153195 12.02537257
   3.25099073  0.00000000 12.02537257
   3.25099073 10.35153195 15.27636330
   6.50198147  0.00000000 15.27636330
   6.59672227 10.33994946 18.42393224
   3.33189008  0.00007784 18.65471053
   3.26730882 10.35279148 22.00573332
   6.49814111 11.82954316 21.60404452
   3.25099073  1.47879028  8.77438183
   6.50198147  2.95758056  8.77438183
   6.50198147  1.47879028 12.02537257
   3.25099073  2.95758056 12.02537257
   3.25099073  1.47879028 15.27636330
   6.50198147  2.95758056 15.27636330
   6.59600760  1.49226298 18.42709836
   3.33255295  2.95889118 18.65424939
   3.26495806  1.47851890 22.00477891
   6.51321703  2.95392242 21.60810221
   3.25099073  4.43637084  8.77438183
   6.50198147  5.91516111  8.77438183
   6.50198147  4.43637084 12.02537257
   3.25099073  5.91516111 12.02537257
   3.25099073  4.43637084 15.27636330
   6.50198147  5.91516111 15.27636330
   6.59751858  4.46420351 18.50092673
   3.32759657  5.91575405 18.65568000
   3.25765308  4.43587752 22.00387709
   6.51394466  5.90816980 21.75469489
   9.75297220  8.87274167  7.50000000
   9.75297220  8.87274167 10.04876366
   1.27438183  7.39395139  8.77438183
  11.72958111  7.39395139  8.77438183
   0.00000000  8.87274167 10.75099073
   0.00000000  8.87274167 13.29975440
  11.02735404  7.39395139 12.02537257
   1.97660890  7.39395139 12.02537257
   9.75297220  8.87274167 14.00198147
   9.75297220  8.87274167 16.55074513
   1.27438183  7.39395139 15.27636330
  11.72958111  7.39395139 15.27636330
   0.01006213  8.87438510 17.27221658
   0.00014105  8.87091057 19.83070490
  11.06683897  7.39730781 18.53165552
   1.95874287  7.39629001 18.54686088
   9.80654111  8.88312630 20.51330133
   9.73607583  8.85957248 23.08426670
   1.23254892  7.39498451 21.96065326
  11.78745439  7.38519544 21.98850866
   9.75297220  0.00000000  7.50000000
   9.75297220  0.00000000 10.04876366
   1.27438183 10.35153195  8.77438183
  11.72958111 10.35153195  8.77438183
   0.00000000  0.00000000 10.75099073
   0.00000000  0.00000000 13.29975440
  11.02735404 10.35153195 12.02537257
   1.97660890 10.35153195 12.02537257
   9.75297220  0.00000000 14.00198147
   9.75297220  0.00000000 16.55074513
   1.27438183 10.35153195 15.27636330
  11.72958111 10.35153195 15.27636330
   0.01072468  0.00019635 17.27275313
   0.00529100 11.83024177 19.82984652
  11.06402192 10.35751039 18.54080419
   1.95879179 10.34999485 18.54924591
   9.76796068  0.00034103 20.52234636
   9.75735459 11.82740929 23.09375840
   1.23005240 10.34591283 21.95347817
  11.78765048 10.35165023 21.97269830
   9.75297220  2.95758056  7.50000000
   9.75297220  2.95758056 10.04876366
   1.27438183  1.47879028  8.77438183
  11.72958111  1.47879028  8.77438183
   0.00000000  2.95758056 10.75099073
   0.00000000  2.95758056 13.29975440
  11.02735404  1.47879028 12.02537257
   1.97660890  1.47879028 12.02537257
   9.75297220  2.95758056 14.00198147
   9.75297220  2.95758056 16.55074513
   1.27438183  1.47879028 15.27636330
  11.72958111  1.47879028 15.27636330
   0.00978073  2.95623089 17.27241319
   0.00266401  2.95971675 19.83095338
  11.06349909  1.47554467 18.54368319
   1.95862582  1.47917861 18.54690728
   9.79614179  2.95449843 20.51409606
   9.74607512  2.96469903 23.08230897
   1.22856989  1.48230353 21.95718186
  11.78707102  1.47828137 21.96670138
   9.75297220  5.91516111  7.50000000
   9.75297220  5.91516111 10.04876366
   1.27438183  4.43637084  8.77438183
  11.72958111  4.43637084  8.77438183
   0.00000000  5.91516111 10.75099073
   0.00000000  5.91516111 13.29975440
  11.02735404  4.43637084 12.02537257
   1.97660890  4.43637084 12.02537257
   9.75297220  5.91516111 14.00198147
   9.75297220  5.91516111 16.55074513
   1.27438183  4.43637084 15.27636330
  11.72958111  4.43637084 15.27636330
   0.01108263  5.91540168 17.27157886
   0.00323604  5.91560352 19.82893816
  11.06661105  4.43293042 18.53255595
   1.95876484  4.43607087 18.54608649
   9.82660755  5.91589175 20.50911243
   9.61995901  5.91282737 23.08579579
   1.23156269  4.43730476 21.96068268
  11.78797535  4.44445828 21.98796411
   3.25099073  8.87274167  7.50000000
   3.25099073  8.87274167 10.04876366
   7.77636330  7.39395139  8.77438183
   5.22759964  7.39395139  8.77438183
   6.50198147  8.87274167 10.75099073
   6.50198147  8.87274167 13.29975440
   4.52537257  7.39395139 12.02537257
   8.47859037  7.39395139 12.02537257
   3.25099073  8.87274167 14.00198147
   3.25099073  8.87274167 16.55074513
   7.77636330  7.39395139 15.27636330
   5.22759964  7.39395139 15.27636330
   6.51449867  8.85769144 17.26642337
   6.47925377  8.89168600 19.79770917
   4.55411454  7.39303364 18.54444457
   8.47136154  7.39744032 18.56259974
   3.27052382  8.86976265 20.51836082
   3.26566369  8.87052219 23.09227381
   7.76838413  7.45064443 21.80068775
   5.30253894  7.40117554 21.97426307
   3.25099073  0.00000000  7.50000000
   3.25099073  0.00000000 10.04876366
   7.77636330 10.35153195  8.77438183
   5.22759964 10.35153195  8.77438183
   6.50198147  0.00000000 10.75099073
   6.50198147  0.00000000 13.29975440
   4.52537257 10.35153195 12.02537257
   8.47859037 10.35153195 12.02537257
   3.25099073  0.00000000 14.00198147
   3.25099073  0.00000000 16.55074513
   7.77636330 10.35153195 15.27636330
   5.22759964 10.35153195 15.27636330
   6.50911370  0.00175564 17.25776828
   6.50819452 11.82972424 19.80570026
   4.55555838 10.35428559 18.53563807
   8.46696380 10.34994204 18.54395892
   3.25894125 11.82974714 20.51689364
   3.25045396  0.00004251 23.09130472
   7.73401571 10.35016845 21.93993771
   5.28345671 10.36283715 21.95064704
   3.25099073  2.95758056  7.50000000
   3.25099073  2.95758056 10.04876366
   7.77636330  1.47879028  8.77438183
   5.22759964  1.47879028  8.77438183
   6.50198147  2.95758056 10.75099073
   6.50198147  2.95758056 13.29975440
   4.52537257  1.47879028 12.02537257
   8.47859037  1.47879028 12.02537257
   3.25099073  2.95758056 14.00198147
   3.25099073  2.95758056 16.55074513
   7.77636330  1.47879028 15.27636330
   5.22759964  1.47879028 15.27636330
   6.51339744  2.97416957 17.26967938
   6.49256899  2.93875406 19.80665435
   4.55660674  1.47774449 18.54003640
   8.46760199  1.48069551 18.54276847
   3.25802212  2.95706446 20.51691906
   3.26283859  2.95983798 23.08981353
   7.73461843  1.47566851 21.94114430
   5.28233308  1.47016193 21.94657614
   3.25099073  5.91516111  7.50000000
   3.25099073  5.91516111 10.04876366
   7.77636330  4.43637084  8.77438183
   5.22759964  4.43637084  8.77438183
   6.50198147  5.91516111 10.75099073
   6.50198147  5.91516111 13.29975440
   4.52537257  4.43637084 12.02537257
   8.47859037  4.43637084 12.02537257
   3.25099073  5.91516111 14.00198147
   3.25099073  5.91516111 16.55074513
   7.77636330  4.43637084 15.27636330
   5.22759964  4.43637084 15.27636330
   6.51562055  5.91364710 17.27816178
   6.50312340  5.91937532 19.84408381
   4.55503733  4.43692017 18.55097075
   8.47089839  4.43605131 18.56227822
   3.25646821  5.91913374 20.51867293
   3.28066862  5.91754639 23.08968966
   7.76164827  4.39457196 21.82933594
   5.28900545  4.42482479 21.93217779



--------------------------------------------------------------------------------------------------------

--------------------------------------- Iteration      FINAL  ---------------------------------------


--------------------OUTCAR has been truncated-------------------------


--------------------OUTCAR has been truncated-------------------------


--------------------OUTCAR has been truncated-------------------------


--------------------OUTCAR has been truncated-------------------------


--------------------OUTCAR has been truncated-------------------------


--------------------OUTCAR has been truncated-------------------------


--------------------OUTCAR has been truncated-------------------------


--------------------OUTCAR has been truncated-------------------------


--------------------OUTCAR has been truncated-------------------------


--------------------OUTCAR has been truncated-------------------------


  Hirshfeld charges:
            ion         q(e)     
   ------------------------------
      1     Ti          0.672
      2     Ti          0.837
      3     Ti          0.735
      4     Ti          0.724
      5     Ti          0.719
      6     Ti          0.733
      7     Ti          0.735
      8     Ti          0.719
      9     Ti          0.707
     10     Ti          0.791
     11     Ti          0.672
     12     Ti          0.837
     13     Ti          0.735
     14     Ti          0.724
     15     Ti          0.718
     16     Ti          0.734
     17     Ti          0.735
     18     Ti          0.719
     19     Ti          0.715
     20     Ti          0.791
     21     Ti          0.672
     22     Ti          0.837
     23     Ti          0.735
     24     Ti          0.724
     25     Ti          0.718
     26     Ti          0.733
     27     Ti          0.735
     28     Ti          0.719
     29     Ti          0.715
     30     Ti          0.791
     31     Ti          0.672
     32     Ti          0.837
     33     Ti          0.735
     34     Ti          0.724
     35     Ti          0.719
     36     Ti          0.733
     37     Ti          0.735
     38     Ti          0.717
     39     Ti          0.708
     40     Ti          0.789
     41     Ti          0.672
     42     Ti          0.837
     43     Ti          0.735
     44     Ti          0.724
     45     Ti          0.718
     46     Ti          0.733
     47     Ti          0.735
     48     Ti          0.719
     49     Ti          0.714
     50     Ti          0.787
     51     Ti          0.672
     52     Ti          0.837
     53     Ti          0.735
     54     Ti          0.724
     55     Ti          0.718
     56     Ti          0.732
     57     Ti          0.736
     58     Ti          0.718
     59     Ti          0.715
     60     Ti          0.786
     61     Ti          0.672
     62     Ti          0.837
     63     Ti          0.735
     64     Ti          0.724
     65     Ti          0.718
     66     Ti          0.733
     67     Ti          0.736
     68     Ti          0.719
     69     Ti          0.716
     70     Ti          0.789
     71     Ti          0.672
     72     Ti          0.837
     73     Ti          0.735
     74     Ti          0.724
     75     Ti          0.718
     76     Ti          0.734
     77     Ti          0.735
     78     Ti          0.718
     79     Ti          0.715
     80     Ti          0.831
     81     O          -0.404
     82     O          -0.385
     83     O          -0.368
     84     O          -0.368
     85     O          -0.348
     86     O          -0.359
     87     O          -0.367
     88     O          -0.367
     89     O          -0.371
     90     O          -0.372
     91     O          -0.364
     92     O          -0.364
     93     O          -0.354
     94     O          -0.352
     95     O          -0.367
     96     O          -0.362
     97     O          -0.374
     98     O          -0.370
     99     O          -0.385
    100     O          -0.385
    101     O          -0.404
    102     O          -0.385
    103     O          -0.368
    104     O          -0.368
    105     O          -0.348
    106     O          -0.359
    107     O          -0.367
    108     O          -0.367
    109     O          -0.371
    110     O          -0.372
    111     O          -0.364
    112     O          -0.364
    113     O          -0.354
    114     O          -0.352
    115     O          -0.367
    116     O          -0.362
    117     O          -0.373
    118     O          -0.368
    119     O          -0.384
    120     O          -0.384
    121     O          -0.404
    122     O          -0.385
    123     O          -0.368
    124     O          -0.368
    125     O          -0.348
    126     O          -0.359
    127     O          -0.367
    128     O          -0.367
    129     O          -0.371
    130     O          -0.372
    131     O          -0.364
    132     O          -0.364
    133     O          -0.354
    134     O          -0.352
    135     O          -0.366
    136     O          -0.361
    137     O          -0.374
    138     O          -0.369
    139     O          -0.384
    140     O          -0.384
    141     O          -0.404
    142     O          -0.385
    143     O          -0.368
    144     O          -0.368
    145     O          -0.348
    146     O          -0.359
    147     O          -0.367
    148     O          -0.367
    149     O          -0.371
    150     O          -0.373
    151     O          -0.364
    152     O          -0.364
    153     O          -0.354
    154     O          -0.352
    155     O          -0.367
    156     O          -0.362
    157     O          -0.375
    158     O          -0.382
    159     O          -0.385
    160     O          -0.385
    161     O          -0.404
    162     O          -0.385
    163     O          -0.368
    164     O          -0.368
    165     O          -0.348
    166     O          -0.359
    167     O          -0.367
    168     O          -0.367
    169     O          -0.371
    170     O          -0.372
    171     O          -0.364
    172     O          -0.364
    173     O          -0.355
    174     O          -0.352
    175     O          -0.366
    176     O          -0.361
    177     O          -0.374
    178     O          -0.369
    179     O          -0.379
    180     O          -0.381
    181     O          -0.404
    182     O          -0.385
    183     O          -0.368
    184     O          -0.368
    185     O          -0.348
    186     O          -0.359
    187     O          -0.367
    188     O          -0.367
    189     O          -0.371
    190     O          -0.372
    191     O          -0.364
    192     O          -0.364
    193     O          -0.356
    194     O          -0.353
    195     O          -0.366
    196     O          -0.362
    197     O          -0.373
    198     O          -0.368
    199     O          -0.384
    200     O          -0.386
    201     O          -0.404
    202     O          -0.385
    203     O          -0.368
    204     O          -0.368
    205     O          -0.348
    206     O          -0.359
    207     O          -0.367
    208     O          -0.367
    209     O          -0.371
    210     O          -0.372
    211     O          -0.364
    212     O          -0.364
    213     O          -0.355
    214     O          -0.351
    215     O          -0.366
    216     O          -0.362
    217     O          -0.374
    218     O          -0.369
    219     O          -0.384
    220     O          -0.386
    221     O          -0.404
    222     O          -0.385
    223     O          -0.368
    224     O          -0.368
    225     O          -0.348
    226     O          -0.359
    227     O          -0.367
    228     O          -0.367
    229     O          -0.371
    230     O          -0.372
    231     O          -0.364
    232     O          -0.364
    233     O          -0.351
    234     O          -0.350
    235     O          -0.367
    236     O          -0.361
    237     O          -0.374
    238     O          -0.371
    239     O          -0.379
    240     O          -0.379

  Hirshfeld-I charges:
            ion         q(e)        dq(e)    
   ------------------------------------------
      1     Ti          2.066     -0.166E-04
      2     Ti          2.069     -0.406E-04
      3     Ti          2.141     -0.169E-04
      4     Ti          2.149     -0.362E-05
      5     Ti          2.134     -0.185E-04
      6     Ti          2.138     -0.566E-05
      7     Ti          2.150      0.145E-05
      8     Ti          2.122     -0.146E-04
      9     Ti          2.056     -0.236E-04
     10     Ti          2.099     -0.372E-04
     11     Ti          2.066     -0.166E-04
     12     Ti          2.069     -0.406E-04
     13     Ti          2.141     -0.169E-04
     14     Ti          2.149     -0.354E-05
     15     Ti          2.134     -0.183E-04
     16     Ti          2.138     -0.565E-05
     17     Ti          2.149      0.145E-05
     18     Ti          2.121     -0.155E-04
     19     Ti          2.060     -0.235E-04
     20     Ti          2.098     -0.376E-04
     21     Ti          2.066     -0.166E-04
     22     Ti          2.069     -0.406E-04
     23     Ti          2.141     -0.169E-04
     24     Ti          2.149     -0.361E-05
     25     Ti          2.134     -0.182E-04
     26     Ti          2.138     -0.568E-05
     27     Ti          2.149      0.153E-05
     28     Ti          2.123     -0.145E-04
     29     Ti          2.057     -0.235E-04
     30     Ti          2.099     -0.372E-04
     31     Ti          2.066     -0.166E-04
     32     Ti          2.069     -0.406E-04
     33     Ti          2.141     -0.169E-04
     34     Ti          2.149     -0.336E-05
     35     Ti          2.134     -0.185E-04
     36     Ti          2.139     -0.578E-05
     37     Ti          2.150      0.145E-05
     38     Ti          2.120     -0.137E-04
     39     Ti          2.056     -0.237E-04
     40     Ti          2.098     -0.365E-04
     41     Ti          2.066     -0.166E-04
     42     Ti          2.069     -0.406E-04
     43     Ti          2.141     -0.169E-04
[...]
      9.75047      1.46917     22.00316         0.094508      0.056958      0.135095
      0.00525      2.95288     21.63644        -0.070941      0.043223      0.140751
      9.75297      4.43637      8.77438        -0.001396      0.000136     -3.473684
      0.00000      5.91516      8.77438         0.000596     -0.000041      2.762734
      0.00000      4.43637     12.02537         0.003235      0.000193      0.528087
      9.75297      5.91516     12.02537        -0.003357      0.000522     -0.726360
      9.75297      4.43637     15.27636        -0.016270      0.027485      0.626704
      0.00000      5.91516     15.27636        -0.002830      0.000832     -0.709730
      0.09355      4.43627     18.45485        -0.075705      0.002620      0.132432
      9.83742      5.91513     18.64837         0.044670      0.003539      0.090861
      9.77409      4.41506     21.97145         0.189554      0.625960      0.555369
      0.01301      5.91629     21.63460        -0.108271      0.012617      0.170699
      3.25099      7.39395      8.77438         0.001565     -0.000054     -3.472011
      6.50198      8.87274      8.77438        -0.000480      0.000287      2.766263
      6.50198      7.39395     12.02537        -0.002942      0.012233      0.540247
      3.25099      8.87274     12.02537         0.004638      0.000930     -0.716872
      3.25099      7.39395     15.27636         0.027903     -0.009533      0.662133
      6.50198      8.87274     15.27636        -0.018671     -0.036072     -0.630581
      6.59793      7.36642     18.49572        -0.005168      0.298926     -0.144907
      3.33340      8.87235     18.65138        -0.097298      0.028566     -0.031295
      3.25767      7.39712     21.99971        -0.226364      0.061737      0.120196
      6.51430      8.87387     21.59695         0.011552      0.384292      0.137397
      3.25099     10.35153      8.77438         0.001811      0.000172     -3.471935
      6.50198      0.00000      8.77438        -0.000589     -0.000063      2.766676
      6.50198     10.35153     12.02537        -0.003389      0.001155      0.544986
      3.25099      0.00000     12.02537         0.005230     -0.000061     -0.715683
      3.25099     10.35153     15.27636         0.022656      0.015477      0.665659
      6.50198      0.00000     15.27636        -0.024555     -0.000708     -0.797013
      6.59672     10.33995     18.42393        -0.012648      0.074689      0.080160
      3.33189      0.00008     18.65471        -0.081347     -0.005377     -0.017902
      3.26731     10.35279     22.00573        -0.064254     -0.009137      0.071631
      6.49814     11.82954     21.60404         0.047348     -0.053155      0.134532
      3.25099      1.47879      8.77438         0.001665     -0.000178     -3.471852
      6.50198      2.95758      8.77438        -0.000538     -0.000347      2.765788
      6.50198      1.47879     12.02537        -0.003649     -0.003870      0.543408
      3.25099      2.95758     12.02537         0.004406     -0.000987     -0.715285
      3.25099      1.47879     15.27636         0.022490     -0.005859      0.672905
      6.50198      2.95758     15.27636        -0.021269      0.037668     -0.618799
      6.59601      1.49226     18.42710        -0.011456     -0.089073      0.070135
      3.33255      2.95889     18.65425        -0.100639     -0.029499     -0.047732
      3.26496      1.47852     22.00478        -0.085342     -0.066448      0.042759
      6.51322      2.95392     21.60810         0.080087     -0.456494     -0.034471
      3.25099      4.43637      8.77438         0.001606     -0.000287     -3.471864
      6.50198      5.91516      8.77438        -0.000407      0.000027      2.765235
      6.50198      4.43637     12.02537        -0.003331     -0.009512      0.538787
      3.25099      5.91516     12.02537         0.003786      0.000044     -0.715852
      3.25099      4.43637     15.27636         0.028328     -0.000199      0.669186
      6.50198      5.91516     15.27636        -0.016490     -0.000730     -0.690948
      6.59752      4.46420     18.50093        -0.001609     -0.283445     -0.155979
      3.32760      5.91575     18.65568        -0.115961      0.005290     -0.051006
      3.25765      4.43588     22.00388        -0.325822      0.012991      0.057440
      6.51394      5.90817     21.75469         0.251406      0.167294     -1.825659
      9.75297      8.87274      7.50000         0.000471     -0.000098      1.808138
      9.75297      8.87274     10.04876         0.000587     -0.000091      1.745394
      1.27438      7.39395      8.77438        -1.845315     -0.000017     -0.787888
     11.72958      7.39395      8.77438         1.844399     -0.000036     -0.787730
      0.00000      8.87274     10.75099        -0.000467     -0.000018     -1.376906
      0.00000      8.87274     13.29975         0.000654      0.000144     -0.105498
     11.02735      7.39395     12.02537         0.444139     -0.000252      0.057441
      1.97661      7.39395     12.02537        -0.447791     -0.000036      0.056188
      9.75297      8.87274     14.00198        -0.001593     -0.001779     -0.099415
      9.75297      8.87274     16.55075         0.006764      0.002399      0.066915
      1.27438      7.39395     15.27636        -0.461315      0.001776      0.076864
     11.72958      7.39395     15.27636         0.455622      0.000886      0.100371
      0.01006      8.87439     17.27222         0.000704      0.001228     -0.060249
      0.00014      8.87091     19.83070         0.007751      0.003160     -0.117712
     11.06684      7.39731     18.53166         0.021962     -0.000964     -0.025057
      1.95874      7.39629     18.54686         0.096242     -0.005805     -0.003521
      9.80654      8.88313     20.51330        -0.044760      0.036922     -0.116714
      9.73608      8.85957     23.08427         0.018979      0.162517     -0.085688
      1.23255      7.39498     21.96065         0.050444      0.003454      0.043712
     11.78745      7.38520     21.98851         0.136907      0.027921      0.002719
      9.75297      0.00000      7.50000         0.000470      0.000112      1.808180
      9.75297      0.00000     10.04876         0.000673      0.000144      1.745384
      1.27438     10.35153      8.77438        -1.845409      0.000008     -0.787927
     11.72958     10.35153      8.77438         1.844346      0.000023     -0.787745
      0.00000      0.00000     10.75099        -0.000506      0.000100     -1.376804
      0.00000      0.00000     13.29975         0.000557      0.000178     -0.104272
     11.02735     10.35153     12.02537         0.444184      0.000042      0.057487
      1.97661     10.35153     12.02537        -0.447903     -0.000302      0.056276
      9.75297      0.00000     14.00198        -0.001749      0.002927     -0.098355
      9.75297      0.00000     16.55075        -0.000582      0.004748      0.056625
      1.27438     10.35153     15.27636        -0.461166      0.000206      0.075258
     11.72958     10.35153     15.27636         0.456241     -0.000105      0.099000
      0.01072      0.00020     17.27275        -0.001148      0.000830     -0.060330
      0.00529     11.83024     19.82985         0.004490      0.001514     -0.103287
     11.06402     10.35751     18.54080         0.025577     -0.003489     -0.018453
      1.95879     10.34999     18.54925         0.089978     -0.005808     -0.003509
      9.76796      0.00034     20.52235        -0.015885      0.006977     -0.063172
      9.75735     11.82741     23.09376        -0.010332      0.022410     -0.010318
      1.23005     10.34591     21.95348         0.021391      0.013618      0.044581
     11.78765     10.35165     21.97270         0.054167      0.014634      0.030023
      9.75297      2.95758      7.50000         0.000441      0.000070      1.808228
      9.75297      2.95758     10.04876         0.000563      0.000137      1.745950
      1.27438      1.47879      8.77438        -1.845387      0.000021     -0.787957
     11.72958      1.47879      8.77438         1.844392      0.000014     -0.787798
      0.00000      2.95758     10.75099        -0.000438      0.000003     -1.376778
      0.00000      2.95758     13.29975         0.000383     -0.000109     -0.104704
     11.02735      1.47879     12.02537         0.444101      0.000356      0.057556
      1.97661      1.47879     12.02537        -0.448069      0.000162      0.056185
      9.75297      2.95758     14.00198        -0.001489      0.001851     -0.095636
      9.75297      2.95758     16.55075         0.004328      0.002865      0.081364
      1.27438      1.47879     15.27636        -0.463452      0.000570      0.074790
     11.72958      1.47879     15.27636         0.453840      0.001744      0.100008
      0.00978      2.95623     17.27241         0.000356      0.000045     -0.058895
      0.00266      2.95972     19.83095         0.007350     -0.002330     -0.112668
     11.06350      1.47554     18.54368         0.025381      0.003451     -0.017956
      1.95863      1.47918     18.54691         0.092109      0.008272     -0.003201
      9.79614      2.95450     20.51410        -0.046760     -0.046036     -0.106837
      9.74608      2.96470     23.08231        -0.015593     -0.157894     -0.025137
      1.22857      1.48230     21.95718         0.032662     -0.004782      0.049158
     11.78707      1.47828     21.96670         0.046610     -0.008190      0.033610
      9.75297      5.91516      7.50000         0.000392     -0.000088      1.808203
      9.75297      5.91516     10.04876         0.000562     -0.000137      1.745521
      1.27438      4.43637      8.77438        -1.845312      0.000021     -0.787929
     11.72958      4.43637      8.77438         1.844331      0.000040     -0.787782
      0.00000      5.91516     10.75099        -0.000472     -0.000075     -1.376922
      0.00000      5.91516     13.29975         0.000596     -0.000055     -0.105787
     11.02735      4.43637     12.02537         0.444037     -0.000163      0.057517
      1.97661      4.43637     12.02537        -0.447930      0.000209      0.056100
      9.75297      5.91516     14.00198         0.000698     -0.002380     -0.099472
      9.75297      5.91516     16.55075        -0.005559     -0.001360      0.052873
      1.27438      4.43637     15.27636        -0.463922     -0.001708      0.076721
     11.72958      4.43637     15.27636         0.453462     -0.001701      0.101164
      0.01108      5.91540     17.27158         0.000679     -0.001789     -0.057266
      0.00324      5.91560     19.82894         0.008641     -0.002446     -0.126836
     11.06661      4.43293     18.53256         0.023257     -0.000983     -0.024925
      1.95876      4.43607     18.54609         0.100011      0.003082     -0.003421
      9.82661      5.91589     20.50911        -0.048029     -0.012121     -0.190601
      9.61996      5.91283     23.08580         0.270695      0.009411     -0.703235
      1.23156      4.43730     21.96068         0.063124     -0.013117      0.048103
     11.78798      4.44446     21.98796         0.132434     -0.037431      0.007753
      3.25099      8.87274      7.50000        -0.000456     -0.000023      1.807429
      3.25099      8.87274     10.04876        -0.000835     -0.000168      1.743002
      7.77636      7.39395      8.77438        -1.843022     -0.000310     -0.788189
      5.22760      7.39395      8.77438         1.843865     -0.000249     -0.788346
      6.50198      8.87274     10.75099         0.000449     -0.001928     -1.385051
      6.50198      8.87274     13.29975         0.002961     -0.004202     -0.143845
      4.52537      7.39395     12.02537         0.441506     -0.000591      0.055527
      8.47859      7.39395     12.02537        -0.438223     -0.000848      0.056658
      3.25099      8.87274     14.00198        -0.006643     -0.001337     -0.110943
      3.25099      8.87274     16.55075        -0.001777     -0.003727      0.081847
      7.77636      7.39395     15.27636        -0.426095     -0.030823      0.062300
      5.22760      7.39395     15.27636         0.450960     -0.031223      0.089863
      6.51450      8.85769     17.26642         0.000045     -0.085312      0.024737
      6.47925      8.89169     19.79771        -0.002693     -0.059270      0.002079
      4.55411      7.39303     18.54444         0.096307     -0.020159      0.002003
      8.47136      7.39744     18.56260        -0.079168     -0.018471     -0.000794
      3.27052      8.86976     20.51836         0.028434     -0.020700      0.012390
      3.26566      8.87052     23.09227         0.002818     -0.015861     -0.059537
      7.76838      7.45064     21.80069        -0.501770     -0.585155      0.431718
      5.30254      7.40118     21.97426         0.211838     -0.321227      0.219308
      3.25099      0.00000      7.50000        -0.000414     -0.000008      1.807238
      3.25099      0.00000     10.04876        -0.000903     -0.000032      1.742518
      7.77636     10.35153      8.77438        -1.842793     -0.000183     -0.788224
      5.22760     10.35153      8.77438         1.843832     -0.000129     -0.788321
      6.50198      0.00000     10.75099         0.000515      0.000430     -1.385796
      6.50198      0.00000     13.29975         0.002411      0.000966     -0.146718
      4.52537     10.35153     12.02537         0.439678     -0.000296      0.055274
      8.47859     10.35153     12.02537        -0.436364      0.000113      0.056607
      3.25099      0.00000     14.00198        -0.006143     -0.001635     -0.113214
      3.25099      0.00000     16.55075        -0.012613      0.001352      0.059131
      7.77636     10.35153     15.27636        -0.422373      0.000694      0.073890
      5.22760     10.35153     15.27636         0.442494     -0.004150      0.090770
      6.50911      0.00176     17.25777        -0.006170      0.003016     -0.023542
      6.50819     11.82972     19.80570        -0.003478      0.004256     -0.094106
      4.55556     10.35429     18.53564         0.052316     -0.011140     -0.008418
      8.46696     10.34994     18.54396        -0.006673     -0.004917     -0.013249
      3.25894     11.82975     20.51689         0.008401      0.009763      0.015215
      3.25045      0.00004     23.09130         0.013159      0.025937     -0.012492
      7.73402     10.35017     21.93994        -0.126950     -0.035406     -0.008814
      5.28346     10.36284     21.95065         0.057197     -0.047721      0.013469
      3.25099      2.95758      7.50000        -0.000417      0.000165      1.807292
      3.25099      2.95758     10.04876        -0.000810      0.000232      1.742668
      7.77636      1.47879      8.77438        -1.842883      0.000243     -0.788225
      5.22760      1.47879      8.77438         1.843814      0.000241     -0.788345
      6.50198      2.95758     10.75099         0.000471      0.001930     -1.384053
      6.50198      2.95758     13.29975         0.002885      0.004391     -0.134955
      4.52537      1.47879     12.02537         0.440177      0.000289      0.055269
      8.47859      1.47879     12.02537        -0.436652      0.000463      0.056753
      3.25099      2.95758     14.00198        -0.006929      0.001457     -0.114235
      3.25099      2.95758     16.55075         0.000229      0.005491      0.082806
      7.77636      1.47879     15.27636        -0.422366      0.007554      0.075407
      5.22760      1.47879     15.27636         0.445685      0.010030      0.090517
      6.51340      2.97417     17.26968        -0.001565      0.084901      0.028459
      6.49257      2.93875     19.80665        -0.007058      0.063186      0.035111
      4.55661      1.47774     18.54004         0.053726      0.015704     -0.008587
      8.46760      1.48070     18.54277        -0.010183      0.007284     -0.012137
      3.25802      2.95706     20.51692         0.034562      0.025904      0.036632
      3.26284      2.95984     23.08981         0.039831      0.045040      0.005635
      7.73462      1.47567     21.94114        -0.133327      0.081451      0.023674
      5.28233      1.47016     21.94658         0.056610      0.086552      0.041932
      3.25099      5.91516      7.50000        -0.000405      0.000091      1.807341
      3.25099      5.91516     10.04876        -0.000750      0.000035      1.742911
      7.77636      4.43637      8.77438        -1.842941      0.000246     -0.788236
      5.22760      4.43637      8.77438         1.843836      0.000226     -0.788379
      6.50198      5.91516     10.75099         0.000480     -0.000418     -1.382334
      6.50198      5.91516     13.29975         0.002663     -0.000797     -0.097089
      4.52537      4.43637     12.02537         0.442042      0.000628      0.055509
      8.47859      4.43637     12.02537        -0.438448      0.000334      0.056844
      3.25099      5.91516     14.00198        -0.008099      0.001720     -0.113159
      3.25099      5.91516     16.55075         0.000385     -0.001233      0.088027
      7.77636      4.43637     15.27636        -0.425559      0.024573      0.062531
      5.22760      4.43637     15.27636         0.453811      0.027167      0.088689
      6.51562      5.91365     17.27816        -0.002431     -0.001685      0.073030
      6.50312      5.91938     19.84408        -0.080107     -0.036599      0.885945
      4.55504      4.43692     18.55097         0.096321      0.016170      0.003909
      8.47090      4.43605     18.56228        -0.078492      0.013645     -0.000923
      3.25647      5.91913     20.51867         0.044569     -0.014683      0.020962
      3.28067      5.91755     23.08969         0.023788     -0.061749     -0.042388
      7.76165      4.39457     21.82934        -0.505341      0.433042      0.427775
      5.28901      4.42482     21.93218         0.252103      0.337042      0.324481
 -----------------------------------------------------------------------------------
    total drift:                               -0.003906     -0.000049      0.119442


--------------------------------------------------------------------------------------------------------



  FREE ENERGIE OF THE ION-ELECTRON SYSTEM (eV)
  ---------------------------------------------------
  free  energy   TOTEN  =     -2154.47988757 eV

  energy  without entropy=    -2154.47988757  energy(sigma->0) =    -2154.47988757



--------------------------------------------------------------------------------------------------------


    POTLOK:  cpu time      0.2712: real time      0.2712


--------------------------------------------------------------------------------------------------------


     LOOP+:  cpu time    806.2375: real time    806.7466
    4ORBIT:  cpu time      0.0000: real time      0.0000

 total amount of memory used by VASP MPI-rank0   162802. kBytes
=======================================================================

   base      :      30000. kBytes
   nonl-proj :      49041. kBytes
   fftplans  :       7947. kBytes
   grid      :      12122. kBytes
   one-center:        233. kBytes
   wavefun   :      63459. kBytes

  
  
 General timing and accounting informations for this job:
 ========================================================
  
                  Total CPU time used (sec):      891.052
                            User time (sec):      881.352
                          System time (sec):        9.699
                         Elapsed time (sec):      905.580
  
                   Maximum memory used (kb):      508236.
                   Average memory used (kb):          N/A
  
                          Minor page faults:       947814
                          Major page faults:          739
                 Voluntary context switches:        11017
