 vasp.6.3.0 20Jan22 (build Apr  1 2022 16:44:48) complex                         
 executed on        HPECrayEX_GCC date 2023.02.21  02:16:45
 running  512 mpi-ranks, with    1 threads/rank
 distrk:  each k-point on  512 cores,    1 groups
 distr:  one band on NCORE=   8 cores,   64 groups


--------------------------------------------------------------------------------------------------------


 INCAR:
   SYSTEM = MgO-rocksalt
   ISMEAR = 0
   SIGMA = 0.05
   EDIFF = 1E-6
   ALGO = ALL
   ISTART = 0
   IBRION = -1
   NSW = 0
   ISYM = 0
   DIPOL = 0.5 0.5 0.5
   IDIPOL = 3
   LDIPOL = .TRUE.
   GGA = MK
   LUSE_VDW = .TRUE.
   PARAM1 = 0.1234
   PARAM2 = 0.711357
   ZAB_VDW = -1.8867
   AGGAC = 0.0
   ENCUT = 600
   PREC = Accurate
   LASPH = .TRUE.
   LREAL = .FALSE.
   ISPIN = 1
   NELM = 200
   NELMIN = 8
   NCORE = 8
   KPAR = 1
   LWAVE = .FALSE.
   LCHARG = .FALSE.

 POTCAR:    PAW_PBE Mg_pv 13Apr2007               
 POTCAR:    PAW_PBE O 08Apr2002                   
 -----------------------------------------------------------------------------
|                                                                             |
|               ----> ADVICE to this user running VASP <----                  |
|                                                                             |
|     You have switched on vdW-DFT.                                           |
|     This routine was written and supplied by Jiri Klimes. We recommend      |
|     that you carefully read and cite the following publications:            |
|       J. Klimes, D.R. Bowler, A. Michelides                                 |
|          J. Phys.: Cond Matt. 22 022201 (2010)                              |
|       J. Klimes, D.R. Bowler, A. Michelides                                 |
|          Phys. Rev. B. 83, 195131 (2011)                                    |
|     and references therein.                                                 |
|                                                                             |
 -----------------------------------------------------------------------------

 POTCAR:    PAW_PBE Mg_pv 13Apr2007               
   SHA256 =  f474ac0dd33840b9ae76c01d57fea79fdf77cdfbb07d5ade72c65f83c709b62b Mg_pv/POTCAR          
   COPYR  = (c) Copyright 13Apr2007 Georg Kresse                                                    
   COPYR  = This file is part of the software VASP. Any use, copying, and all other rights are regul
   COPYR  = If you do not have a valid VASP license, you may not use, copy or distribute this file. 
   VRHFIN =Mg: p6s2                                                                                 
   LEXCH  = PE                                                                                      
   EATOM  =  1056.7344 eV,   77.6678 Ry                                                             
                                                                                                    
   TITEL  = PAW_PBE Mg_pv 13Apr2007                                                                 
   LULTRA =        F    use ultrasoft PP ?                                                          
   IUNSCR =        1    unscreen: 0-lin 1-nonlin 2-no                                               
   RPACOR =    1.500    partial core radius                                                         
   POMASS =   24.305; ZVAL   =    8.000    mass and valenz                                          
   RCORE  =    2.000    outmost cutoff radius                                                       
   RWIGS  =    2.000; RWIGS  =    1.058    wigner-seitz radius (au A)                               
   ENMAX  =  403.929; ENMIN  =  302.947 eV                                                          
   RCLOC  =    1.506    cutoff for local pot                                                        
   LCOR   =        T    correct aug charges                                                         
   LPAW   =        T    paw PP                                                                      
   EAUG   =  758.780                                                                                
   DEXC   =    0.000                                                                                
   RMAX   =    2.045    core radius for proj-oper                                                   
   RAUG   =    1.300    factor for augmentation sphere                                              
   RDEP   =    2.025    radius for radial grids                                                     
   RDEPT  =    1.557    core radius for aug-charge                                                  
                                                                                                    
   Atomic configuration                                                                             
    5 entries                                                                                       
     n  l   j            E        occ.                                                              
     1  0  0.50     -1259.6230   2.0000                                                             
     2  0  0.50       -79.8442   2.0000                                                             
     2  1  1.50       -46.6121   6.0000                                                             
     3  0  0.50        -4.7055   2.0000                                                             
     3  2  1.50        -1.3606   0.0000                                                             
   Description                                                                                      
     l       E           TYP  RCUT    TYP  RCUT                                                     
     1    -46.6121073     23  1.600                                                                 
     1      2.7211652     23  1.600                                                                 
     0     -4.7054661     23  2.000                                                                 
     0     61.2262170     23  2.000                                                                 
     2     -1.3605826     23  2.000                                                                 
  local pseudopotential read in
  partial core-charges read in
  partial kinetic energy density read in
  atomic valenz-charges read in
  non local Contribution for L=           1  read in
    real space projection operators read in
  non local Contribution for L=           1  read in
    real space projection operators read in
  non local Contribution for L=           0  read in
    real space projection operators read in
  non local Contribution for L=           0  read in
    real space projection operators read in
  non local Contribution for L=           2  read in
    real space projection operators read in
    PAW grid and wavefunctions read in

   number of l-projection  operators is LMAX  =           5
   number of lm-projection operators is LMMAX =          13

 POTCAR:    PAW_PBE O 08Apr2002                   
   SHA256 =  818f92134a0a090dccd8ba1447fa70422a3b330e708bb4f08108d8ae51209ddf O/POTCAR              
   COPYR  = (c) Copyright 08Apr2002 Georg Kresse                                                    
   COPYR  = This file is part of the software VASP. Any use, copying, and all other rights are regul
   COPYR  = If you do not have a valid VASP license, you may not use, copy or distribute this file. 
   VRHFIN =O: s2p4                                                                                  
   LEXCH  = PE                                                                                      
   EATOM  =   432.3788 eV,   31.7789 Ry                                                             
                                                                                                    
   TITEL  = PAW_PBE O 08Apr2002                                                                     
   LULTRA =        F    use ultrasoft PP ?                                                          
   IUNSCR =        1    unscreen: 0-lin 1-nonlin 2-no                                               
   RPACOR =    1.200    partial core radius                                                         
   POMASS =   16.000; ZVAL   =    6.000    mass and valenz                                          
   RCORE  =    1.520    outmost cutoff radius                                                       
   RWIGS  =    1.550; RWIGS  =    0.820    wigner-seitz radius (au A)                               
   ENMAX  =  400.000; ENMIN  =  300.000 eV                                                          
   ICORE  =        2    local potential                                                             
   LCOR   =        T    correct aug charges                                                         
   LPAW   =        T    paw PP                                                                      
   EAUG   =  605.392                                                                                
   DEXC   =    0.000                                                                                
   RMAX   =    1.553    core radius for proj-oper                                                   
   RAUG   =    1.300    factor for augmentation sphere                                              
   RDEP   =    1.550    radius for radial grids                                                     
   RDEPT  =    1.329    core radius for aug-charge                                                  
                                                                                                    
   Atomic configuration                                                                             
    4 entries                                                                                       
     n  l   j            E        occ.                                                              
     1  0  0.50      -514.6923   2.0000                                                             
     2  0  0.50       -23.9615   2.0000                                                             
     2  1  0.50        -9.0305   4.0000                                                             
     3  2  1.50        -9.5241   0.0000                                                             
   Description                                                                                      
     l       E           TYP  RCUT    TYP  RCUT                                                     
     0    -23.9615318     23  1.200                                                                 
     0     -9.5240782     23  1.200                                                                 
     1     -9.0304911     23  1.520                                                                 
     1      8.1634956     23  1.520                                                                 
     2     -9.5240782      7  1.500                                                                 
  local pseudopotential read in
  partial core-charges read in
  partial kinetic energy density read in
  kinetic energy density of atom read in
  atomic valenz-charges read in
  non local Contribution for L=           0  read in
    real space projection operators read in
  non local Contribution for L=           0  read in
    real space projection operators read in
  non local Contribution for L=           1  read in
    real space projection operators read in
  non local Contribution for L=           1  read in
    real space projection operators read in
    PAW grid and wavefunctions read in

   number of l-projection  operators is LMAX  =           4
   number of lm-projection operators is LMMAX =           8

 -----------------------------------------------------------------------------
|                                                                             |
|               ----> ADVICE to this user running VASP <----                  |
|                                                                             |
|     You have a (more or less) 'large supercell' and for larger cells it     |
|     might be more efficient to use real-space projection operators.         |
|     Therefore, try LREAL= Auto in the INCAR file.                           |
|     Mind: For very accurate calculation, you might also keep the            |
|     reciprocal projection scheme (i.e. LREAL=.FALSE.).                      |
|                                                                             |
 -----------------------------------------------------------------------------

 -----------------------------------------------------------------------------
|                                                                             |
|               ----> ADVICE to this user running VASP <----                  |
|                                                                             |
|     You enforced a specific xc type in the INCAR file but a different       |
|     type was found in the POTCAR file.                                      |
|     I HOPE YOU KNOW WHAT YOU ARE DOING!                                     |
|                                                                             |
 -----------------------------------------------------------------------------

  PAW_PBE Mg_pv 13Apr2007               :
 energy of atom  1       EATOM=-1056.7344
 kinetic energy error for atom=    0.0221 (will be added to EATOM!!)
  PAW_PBE O 08Apr2002                   :
 energy of atom  2       EATOM= -432.3788
 kinetic energy error for atom=    0.0168 (will be added to EATOM!!)


 POSCAR: Mg  O
  positions in direct lattice
  No initial velocities read in
 exchange correlation table for  LEXCH =       43
   RHO(1)=    0.500       N(1)  =     2000
   RHO(2)=  100.500       N(2)  =     4000



--------------------------------------------------------------------------------------------------------


 ion  position               nearest neighbor table
   1  0.250  0.000  0.351-  33 2.12  35 2.12  36 2.12  43 2.12  52 2.12
   2  0.500  0.250  0.351-  34 2.12  35 2.12  36 2.12  44 2.12  51 2.12
   3  0.250  0.250  0.450-  35 2.12  34 2.12  33 2.12  41 2.12  50 2.12  39 2.12
   4  0.500  0.000  0.450-  36 2.12  34 2.12  33 2.12  42 2.12  49 2.12  40 2.12
   5  0.250  0.000  0.550-  40 2.11  39 2.12  47 2.12  56 2.12  33 2.12  37 2.16
   6  0.500  0.251  0.551-  48 2.11  55 2.12  39 2.12  40 2.13  34 2.14  38 2.14
   7  0.250  0.250  0.648-  39 2.09  37 2.12  54 2.12  38 2.12  45 2.12
   8  0.500  0.000  0.648-  38 2.09  46 2.09  40 2.10  53 2.12  37 2.12
   9  0.250  0.500  0.351-  41 2.12  35 2.12  43 2.12  44 2.12  60 2.12
  10  0.500  0.750  0.351-  42 2.12  36 2.12  43 2.12  44 2.12  59 2.12
  11  0.250  0.750  0.450-  43 2.12  41 2.12  42 2.12  33 2.12  58 2.12  47 2.12
  12  0.500  0.500  0.450-  44 2.12  41 2.12  42 2.12  34 2.12  57 2.12  48 2.14
  13  0.251  0.500  0.551-  48 2.11  39 2.12  47 2.12  64 2.13  41 2.14  45 2.14
  14  0.500  0.749  0.551-  48 2.10  63 2.12  47 2.12  40 2.13  42 2.14  46 2.15
  15  0.249  0.750  0.648-  47 2.09  62 2.11  37 2.12  45 2.12  46 2.12
  16  0.500  0.498  0.655-  38 2.13  45 2.14  61 2.14  46 2.17  48 2.23
  17  0.750  0.000  0.351-  49 2.12  36 2.12  51 2.12  52 2.12  59 2.12
  18  0.000  0.250  0.351-  50 2.12  35 2.12  51 2.12  52 2.12  60 2.12
  19  0.750  0.250  0.450-  51 2.12  49 2.12  50 2.12  34 2.12  57 2.12  55 2.12
  20  0.000  0.000  0.450-  52 2.12  49 2.12  50 2.12  33 2.12  58 2.12  56 2.12
  21  0.750  0.000  0.550-  40 2.11  55 2.12  63 2.12  56 2.12  49 2.12  53 2.16
  22  0.000  0.250  0.550-  64 2.11  55 2.12  39 2.12  56 2.12  50 2.12  54 2.16
  23  0.750  0.250  0.648-  55 2.09  53 2.12  54 2.12  38 2.12  61 2.12
  24  0.000  0.000  0.648-  56 2.10  37 2.11  53 2.11  54 2.11  62 2.11
  25  0.750  0.500  0.351-  57 2.12  51 2.12  44 2.12  59 2.12  60 2.12
  26  0.000  0.750  0.351-  58 2.12  52 2.12  43 2.12  59 2.12  60 2.12
  27  0.750  0.750  0.450-  59 2.12  49 2.12  57 2.12  58 2.12  42 2.12  63 2.12
  28  0.000  0.500  0.450-  60 2.12  50 2.12  57 2.12  58 2.12  41 2.12  64 2.12
  29  0.749  0.500  0.551-  48 2.11  55 2.12  63 2.12  64 2.13  57 2.14  61 2.14
  30  0.000  0.750  0.550-  64 2.11  63 2.12  47 2.12  56 2.12  58 2.12  62 2.16
  31  0.751  0.750  0.648-  63 2.09  62 2.11  53 2.12  61 2.12  46 2.12
  32  0.000  0.500  0.648-  45 2.09  61 2.09  64 2.10  54 2.12  62 2.12
  33  0.250  0.000  0.450-   1 2.12   3 2.12   4 2.12  11 2.12  20 2.12   5 2.12
  34  0.500  0.250  0.450-   2 2.12   3 2.12   4 2.12  12 2.12  19 2.12   6 2.14
  35  0.250  0.250  0.351-   3 2.12   2 2.12   1 2.12   9 2.12  18 2.12
  36  0.500  0.000  0.351-   4 2.12   2 2.12   1 2.12  10 2.12  17 2.12
  37  0.249  1.000  0.651-  24 2.11   7 2.12  15 2.12   8 2.12   5 2.16
  38  0.500  0.247  0.651-   8 2.09   7 2.12  23 2.12  16 2.13   6 2.14
  39  0.250  0.250  0.550-   7 2.09   5 2.12  22 2.12  13 2.12   6 2.12   3 2.12
  40  0.500  1.000  0.550-   8 2.10  21 2.11   5 2.11   4 2.12  14 2.13   6 2.13
  41  0.250  0.500  0.450-   9 2.12   3 2.12  11 2.12  12 2.12  28 2.12  13 2.14
  42  0.500  0.750  0.450-  10 2.12   4 2.12  11 2.12  12 2.12  27 2.12  14 2.14
  43  0.250  0.750  0.351-  11 2.12   9 2.12  10 2.12   1 2.12  26 2.12
  44  0.500  0.500  0.351-  12 2.12   9 2.12  10 2.12   2 2.12  25 2.12
  45  0.247  0.500  0.651-  32 2.09  15 2.12   7 2.12  13 2.14  16 2.14
  46  0.500  0.753  0.652-   8 2.09  31 2.12  15 2.12  14 2.15  16 2.17
  47  0.250  0.750  0.550-  15 2.09   5 2.12  14 2.12  30 2.12  13 2.12  11 2.12
  48  0.500  0.500  0.551-  14 2.10  13 2.11  29 2.11   6 2.11  12 2.14  16 2.23
  49  0.750  0.000  0.450-  17 2.12   4 2.12  19 2.12  20 2.12  27 2.12  21 2.12
  50  0.000  0.250  0.450-  18 2.12   3 2.12  19 2.12  20 2.12  28 2.12  22 2.12
  51  0.750  0.250  0.351-  19 2.12  17 2.12  18 2.12   2 2.12  25 2.12
  52  0.000  0.000  0.351-  20 2.12  17 2.12  18 2.12   1 2.12  26 2.12
  53  0.751  1.000  0.651-  24 2.11  23 2.12  31 2.12   8 2.12  21 2.16
  54  0.000  0.249  0.651-  24 2.11  23 2.12   7 2.12  32 2.12  22 2.16
  55  0.750  0.250  0.550-  23 2.09  21 2.12  22 2.12  29 2.12   6 2.12  19 2.12
  56  0.000  1.000  0.550-  24 2.10  30 2.12  20 2.12  21 2.12   5 2.12  22 2.12
  57  0.750  0.500  0.450-  25 2.12  19 2.12  12 2.12  27 2.12  28 2.12  29 2.14
  58  0.000  0.750  0.450-  26 2.12  20 2.12  11 2.12  27 2.12  28 2.12  30 2.12
  59  0.750  0.750  0.351-  27 2.12  17 2.12  25 2.12  26 2.12  10 2.12
  60  0.000  0.500  0.351-  28 2.12  18 2.12  25 2.12  26 2.12   9 2.12
  61  0.753  0.500  0.651-  32 2.09  31 2.12  23 2.12  29 2.14  16 2.14
  62  0.000  0.751  0.651-  24 2.11  15 2.11  31 2.11  32 2.12  30 2.16
  63  0.750  0.750  0.550-  31 2.09  21 2.12  14 2.12  30 2.12  29 2.12  27 2.12
  64  0.000  0.500  0.550-  32 2.10  30 2.11  22 2.11  28 2.12  13 2.13  29 2.13


IMPORTANT INFORMATION: All symmetrisations will be switched off!
NOSYMM: (Re-)initialisation of all symmetry stuff for point group C_1.


----------------------------------------------------------------------------------------

                                     Primitive cell                                     

  volume of cell :    1530.6606

  direct lattice vectors                    reciprocal lattice vectors
     8.467142631  0.000000000  0.000000000     0.118103597  0.000000000  0.000000000
     0.000000000  8.467142631  0.000000000     0.000000000  0.118103597  0.000000000
     0.000000000  0.000000000 21.350356973     0.000000000  0.000000000  0.046837624

  length of vectors
     8.467142631  8.467142631 21.350356973     0.118103597  0.118103597  0.046837624

  position of ions in fractional coordinates (direct lattice)
     0.250000000  0.000000000  0.351282183
     0.500000000  0.250000000  0.351282183
     0.250000000  0.250000000  0.450427394
     0.500000000  0.000000000  0.450427394
     0.250268217  0.000041151  0.549894757
     0.500000260  0.251202403  0.550507467
     0.249728290  0.249620539  0.647823269
     0.500000335  0.000423602  0.647863994
     0.250000000  0.500000000  0.351282183
     0.500000000  0.750000000  0.351282183
     0.250000000  0.750000000  0.450427394
     0.500000000  0.500000000  0.450427394
     0.251309792  0.499895591  0.550580922
     0.500000253  0.748649587  0.550631205
     0.249426297  0.750199092  0.647640585
     0.500000093  0.497808846  0.654967657
     0.750000000  0.000000000  0.351282183
     0.000000000  0.250000000  0.351282183
     0.750000000  0.250000000  0.450427394
     0.000000000  0.000000000  0.450427394
     0.749732268  0.000041185  0.549894780
     0.000000154  0.250245864  0.549893189
     0.750272478  0.249620509  0.647823235
     0.000000368  0.000020197  0.648085502
     0.750000000  0.500000000  0.351282183
     0.000000000  0.750000000  0.351282183
     0.750000000  0.750000000  0.450427394
     0.000000000  0.500000000  0.450427394
     0.748690697  0.499895573  0.550580955
     0.000000189  0.749678922  0.549868733
     0.750574450  0.750199078  0.647640546
     0.000000440  0.499867018  0.647860306
     0.250000000  0.000000000  0.450427394
     0.500000000  0.250000000  0.450427394
     0.250000000  0.250000000  0.351282183
     0.500000000  0.000000000  0.351282183
     0.249275292  0.999941342  0.650861636
     0.500000367  0.247056483  0.650592119
     0.249822450  0.249838212  0.549751138
     0.500000279  0.999791552  0.549624400
     0.250000000  0.500000000  0.450427394
     0.500000000  0.750000000  0.450427394
     0.250000000  0.750000000  0.351282183
     0.500000000  0.500000000  0.351282183
     0.247155942  0.499955757  0.650910805
     0.500000388  0.753373945  0.651544723
     0.250008885  0.750103074  0.549805649
     0.500000145  0.500092976  0.550664529
     0.750000000  0.000000000  0.450427394
     0.000000000  0.250000000  0.450427394
     0.750000000  0.250000000  0.351282183
     0.000000000  0.000000000  0.351282183
     0.750725349  0.999941393  0.650861754
     0.000000382  0.249320848  0.650888441
     0.750177990  0.249838083  0.549751195
     0.000000149  0.999914128  0.549669166
     0.750000000  0.500000000  0.450427394
     0.000000000  0.750000000  0.450427394
     0.750000000  0.750000000  0.351282183
     0.000000000  0.500000000  0.351282183
     0.752844602  0.499955710  0.650911020
     0.000000437  0.750604221  0.650833045
     0.749991545  0.750103197  0.549805674
     0.000000289  0.500019120  0.549609315

  ion indices of the primitive-cell ions
   primitive index   ion index
                 1           1
                 2           2
                 3           3
                 4           4
                 5           5
                 6           6
                 7           7
                 8           8
                 9           9
                10          10
                11          11
                12          12
                13          13
                14          14
                15          15
                16          16
                17          17
                18          18
                19          19
                20          20
                21          21
                22          22
                23          23
                24          24
                25          25
                26          26
                27          27
                28          28
                29          29
                30          30
                31          31
                32          32
                33          33
                34          34
                35          35
                36          36
                37          37
                38          38
                39          39
                40          40
                41          41
                42          42
                43          43
                44          44
                45          45
                46          46
                47          47
                48          48
                49          49
                50          50
                51          51
                52          52
                53          53
                54          54
                55          55
                56          56
                57          57
                58          58
                59          59
                60          60
                61          61
                62          62
                63          63
                64          64

----------------------------------------------------------------------------------------



 KPOINTS: pymatgen v2020.8.13 with grid density = 

Automatic generation of k-mesh.
 Grid dimensions read from file:
 generate k-points for:    2    2    1

 Generating k-lattice:

  Cartesian coordinates                     Fractional coordinates (reciprocal lattice)
     0.059051798  0.000000000  0.000000000     0.500000000  0.000000000  0.000000000
     0.000000000  0.059051798  0.000000000     0.000000000  0.500000000  0.000000000
     0.000000000  0.000000000  0.046837624     0.000000000  0.000000000  1.000000000

  Length of vectors
     0.059051798  0.059051798  0.046837624

  Shift w.r.t. Gamma in fractional coordinates (k-lattice)
     0.000000000  0.000000000  0.000000000

 
 Subroutine IBZKPT returns following result:
 ===========================================
 
 Found      4 irreducible k-points:
 
 Following reciprocal coordinates:
            Coordinates               Weight
  0.000000  0.000000  0.000000      1.000000
  0.500000  0.000000  0.000000      1.000000
  0.000000  0.500000  0.000000      1.000000
  0.500000  0.500000  0.000000      1.000000
 
 Following cartesian coordinates:
            Coordinates               Weight
  0.000000  0.000000  0.000000      1.000000
  0.059052  0.000000  0.000000      1.000000
  0.000000  0.059052  0.000000      1.000000
  0.059052  0.059052  0.000000      1.000000
 


--------------------------------------------------------------------------------------------------------




 Dimension of arrays:
   k-points           NKPTS =      4   k-points in BZ     NKDIM =      4   number of bands    NBANDS=    320
   number of dos      NEDOS =    301   number of ions     NIONS =     64
   non local maximal  LDIM  =      5   non local SUM 2l+1 LMDIM =     13
   total plane-waves  NPLWV = 882000
   max r-space proj   IRMAX =      1   max aug-charges    IRDMAX=  11554
   dimension x,y,z NGX =    70 NGY =   70 NGZ =  180
   dimension x,y,z NGXF=   140 NGYF=  140 NGZF=  360
   support grid    NGXF=   140 NGYF=  140 NGZF=  360
   ions per type =              32  32
   NGX,Y,Z   is equivalent  to a cutoff of  13.74, 13.74, 14.02 a.u.
   NGXF,Y,Z  is equivalent  to a cutoff of  27.49, 27.49, 28.03 a.u.

 SYSTEM =  MgO-rocksalt                            
 POSCAR =  Mg  O                                   

--------------------------------------------------------------------------------------------------------


  energy-cutoff  :      600.00
  volume of cell :     1530.66
      direct lattice vectors                 reciprocal lattice vectors
     8.467142631  0.000000000  0.000000000     0.118103597  0.000000000  0.000000000
     0.000000000  8.467142631  0.000000000     0.000000000  0.118103597  0.000000000
     0.000000000  0.000000000 21.350356973     0.000000000  0.000000000  0.046837624

  length of vectors
     8.467142631  8.467142631 21.350356973     0.118103597  0.118103597  0.046837624



 k-points in units of 2pi/SCALE and weight: pymatgen v2020.8.13 with grid density = 
   0.00000000  0.00000000  0.00000000       0.250
   0.05905180  0.00000000  0.00000000       0.250
   0.00000000  0.05905180  0.00000000       0.250
   0.05905180  0.05905180  0.00000000       0.250

 k-points in reciprocal lattice and weights: pymatgen v2020.8.13 with grid density = 
   0.00000000  0.00000000  0.00000000       0.250
   0.50000000  0.00000000  0.00000000       0.250
   0.00000000  0.50000000  0.00000000       0.250
   0.50000000  0.50000000  0.00000000       0.250

 position of ions in fractional coordinates (direct lattice) 
   0.25000000  0.00000000  0.35128218
   0.50000000  0.25000000  0.35128218
   0.25000000  0.25000000  0.45042739
   0.50000000  0.00000000  0.45042739
   0.25026822  0.00004115  0.54989476
   0.50000026  0.25120240  0.55050747
   0.24972829  0.24962054  0.64782327
   0.50000034  0.00042360  0.64786399
   0.25000000  0.50000000  0.35128218
   0.50000000  0.75000000  0.35128218
   0.25000000  0.75000000  0.45042739
   0.50000000  0.50000000  0.45042739
   0.25130979  0.49989559  0.55058092
   0.50000025  0.74864959  0.55063120
   0.24942630  0.75019909  0.64764059
   0.50000009  0.49780885  0.65496766
   0.75000000  0.00000000  0.35128218
   0.00000000  0.25000000  0.35128218
   0.75000000  0.25000000  0.45042739
   0.00000000  0.00000000  0.45042739
   0.74973227  0.00004119  0.54989478
   0.00000015  0.25024586  0.54989319
   0.75027248  0.24962051  0.64782324
   0.00000037  0.00002020  0.64808550
   0.75000000  0.50000000  0.35128218
   0.00000000  0.75000000  0.35128218
   0.75000000  0.75000000  0.45042739
   0.00000000  0.50000000  0.45042739
   0.74869070  0.49989557  0.55058096
   0.00000019  0.74967892  0.54986873
   0.75057445  0.75019908  0.64764055
   0.00000044  0.49986702  0.64786031
   0.25000000  0.00000000  0.45042739
   0.50000000  0.25000000  0.45042739
   0.25000000  0.25000000  0.35128218
   0.50000000  0.00000000  0.35128218
   0.24927529  0.99994134  0.65086164
   0.50000037  0.24705648  0.65059212
   0.24982245  0.24983821  0.54975114
   0.50000028  0.99979155  0.54962440
   0.25000000  0.50000000  0.45042739
   0.50000000  0.75000000  0.45042739
   0.25000000  0.75000000  0.35128218
   0.50000000  0.50000000  0.35128218
   0.24715594  0.49995576  0.65091080
   0.50000039  0.75337394  0.65154472
   0.25000889  0.75010307  0.54980565
   0.50000015  0.50009298  0.55066453
   0.75000000  0.00000000  0.45042739
   0.00000000  0.25000000  0.45042739
   0.75000000  0.25000000  0.35128218
   0.00000000  0.00000000  0.35128218
   0.75072535  0.99994139  0.65086175
   0.00000038  0.24932085  0.65088844
   0.75017799  0.24983808  0.54975119
   0.00000015  0.99991413  0.54966917
   0.75000000  0.50000000  0.45042739
   0.00000000  0.75000000  0.45042739
   0.75000000  0.75000000  0.35128218
   0.00000000  0.50000000  0.35128218
   0.75284460  0.49995571  0.65091102
   0.00000044  0.75060422  0.65083305
   0.74999154  0.75010320  0.54980567
   0.00000029  0.50001912  0.54960932

 position of ions in cartesian coordinates  (Angst):
   2.11678566  0.00000000  7.50000000
   4.23357132  2.11678566  7.50000000
   2.11678566  2.11678566  9.61678566
   4.23357132  0.00000000  9.61678566
   2.11905669  0.00034843 11.74044935
   4.23357352  2.12696657 11.75353093
   2.11448505  2.11357271 13.83125804
   4.23357416  0.00358670 13.83212753
   2.11678566  4.23357132  7.50000000
   4.23357132  6.35035697  7.50000000
   2.11678566  6.35035697  9.61678566
   4.23357132  4.23357132  9.61678566
   2.12787586  4.23268727 11.75509924
   4.23357345  6.33892283 11.75617278
   2.11192803  6.35204271 13.82735769
   4.23357210  4.21501850 13.98379328
   6.35035697  0.00000000  7.50000000
   0.00000000  2.11678566  7.50000000
   6.35035697  2.11678566  9.61678566
   0.00000000  0.00000000  9.61678566
   6.34809005  0.00034872 11.74044985
   0.00000130  2.11886743 11.74041589
   6.35266408  2.11357245 13.83125732
   0.00000311  0.00017101 13.83685681
   6.35035697  4.23357132  7.50000000
   0.00000000  6.35035697  7.50000000
   6.35035697  6.35035697  9.61678566
   0.00000000  4.23357132  9.61678566
   6.33927092  4.23268712 11.75509994
   0.00000160  6.34763836 11.73989373
   6.35522092  6.35204260 13.82735685
   0.00000372  4.23244534 13.83204879
   2.11678566  0.00000000  9.61678566
   4.23357132  2.11678566  9.61678566
   2.11678566  2.11678566  7.50000000
   4.23357132  0.00000000  7.50000000
   2.11064945  8.46664597 13.89612827
   4.23357442  2.09186248 13.89037399
   2.11528232  2.11541578 11.73738305
   4.23357368  8.46537767 11.73467715
   2.11678566  4.23357132  9.61678566
   4.23357132  6.35035697  9.61678566
   2.11678566  6.35035697  7.50000000
   4.23357132  4.23357132  7.50000000
   2.09270461  4.23319670 13.89717804
   4.23357460  6.37892464 13.91071242
   2.11686089  6.35122972 11.73854687
   4.23357254  4.23435855 11.75688426
   6.35035697  0.00000000  9.61678566
   0.00000000  2.11678566  9.61678566
   6.35035697  2.11678566  7.50000000
   0.00000000  0.00000000  7.50000000
   6.35649860  8.46664639 13.89613078
   0.00000324  2.11103518 13.89670056
   6.35186404  2.11541468 11.73738425
   0.00000126  8.46641554 11.73563290
   6.35035697  4.23357132  9.61678566
   0.00000000  6.35035697  9.61678566
   6.35035697  6.35035697  7.50000000
   0.00000000  4.23357132  7.50000000
   6.37444262  4.23319630 13.89718265
   0.00000370  6.35547300 13.89551784
   6.35028538  6.35123076 11.73854741
   0.00000245  4.23373320 11.73435508



--------------------------------------------------------------------------------------------------------

--------------------------------------- Iteration      FINAL  ---------------------------------------


--------------------OUTCAR has been truncated-------------------------


--------------------OUTCAR has been truncated-------------------------


--------------------OUTCAR has been truncated-------------------------


--------------------OUTCAR has been truncated-------------------------


--------------------OUTCAR has been truncated-------------------------


--------------------OUTCAR has been truncated-------------------------


--------------------OUTCAR has been truncated-------------------------


--------------------OUTCAR has been truncated-------------------------


--------------------OUTCAR has been truncated-------------------------


--------------------OUTCAR has been truncated-------------------------


  FORCE on cell =-STRESS in cart. coord.  units (eV):
  Direction    XX          YY          ZZ          XY          YZ          ZX
  --------------------------------------------------------------------------------------
  Alpha Z   869.06037   869.06037   869.06037
  Ewald  160037.23754160037.70503************    -0.00001     0.47740     0.00110
  Hartree170078.72107170078.95770************    -0.00001     0.17080     0.00063
  E(xc)   -2454.67222 -2454.67195 -2454.77188     0.00000    -0.00006     0.00000
  Local  ************************340292.17495     0.00002    -0.59082    -0.00174
  n-local -2832.36706 -2832.35861 -2851.44307     0.00000    -0.00887     0.00004
  augment  1051.76611  1051.76587  1042.51150     0.00000    -0.00892     0.00001
  Kinetic  7298.34178  7298.33633  7338.15944    -0.00000     0.02700    -0.00023
  Fock        0.00000     0.00000     0.00000     0.00000     0.00000     0.00000
  -------------------------------------------------------------------------------------
  Total     -35.52799   -35.51218    -6.88345    -0.00000     0.06652    -0.00018
  in kB     -37.18796   -37.17141    -7.20506    -0.00000     0.06963    -0.00019
  external pressure =      -27.19 kB  Pullay stress =        0.00 kB


 VOLUME and BASIS-vectors are now :
 -----------------------------------------------------------------------------
  energy-cutoff  :      600.00
  volume of cell :     1530.66
      direct lattice vectors                 reciprocal lattice vectors
     8.467142631  0.000000000  0.000000000     0.118103597  0.000000000  0.000000000
     0.000000000  8.467142631  0.000000000     0.000000000  0.118103597  0.000000000
     0.000000000  0.000000000 21.350356973     0.000000000  0.000000000  0.046837624

  length of vectors
     8.467142631  8.467142631 21.350356973     0.118103597  0.118103597  0.046837624


 FORCES acting on ions:
    Electron-Ion                     Ewald-Force                    Non-Local-Force
 -----------------------------------------------------------------------------------------------
   -.279E+00 0.478E-01 0.205E+04   0.284E+00 -.489E-01 -.205E+04   -.365E-02 0.732E-03 -.677E+01
   -.134E-04 -.350E+00 0.205E+04   0.138E-04 0.359E+00 -.204E+04   -.135E-05 -.695E-02 -.679E+01
   -.144E+01 -.151E+01 0.680E+03   0.148E+01 0.156E+01 -.680E+03   -.237E-01 -.319E-01 0.486E+00
   0.306E-04 0.261E+00 0.680E+03   -.157E-04 -.288E+00 -.680E+03   -.100E-04 0.193E-01 0.377E+00
   -.998E+00 0.566E+00 -.681E+03   0.983E+00 -.571E+00 0.681E+03   -.101E-01 -.306E-02 -.184E+00
   -.208E-05 -.458E+01 -.688E+03   -.127E-04 0.491E+01 0.688E+03   0.877E-05 -.337E+00 -.292E+00
   -.213E+01 -.279E+01 -.203E+04   0.155E+01 0.230E+01 0.202E+04   0.451E+00 0.389E+00 0.580E+01
   0.105E-03 0.161E+01 -.203E+04   -.923E-04 -.187E+01 0.202E+04   -.863E-05 0.177E+00 0.549E+01
   -.352E+00 -.482E-01 0.205E+04   0.362E+00 0.491E-01 -.204E+04   -.733E-02 -.643E-03 -.679E+01
   -.129E-04 0.349E+00 0.205E+04   0.143E-04 -.359E+00 -.204E+04   0.190E-05 0.721E-02 -.680E+01
   -.157E+01 0.151E+01 0.679E+03   0.164E+01 -.156E+01 -.680E+03   -.462E-01 0.333E-01 0.496E+00
   -.147E-03 -.284E+00 0.675E+03   0.150E-03 0.305E+00 -.675E+03   -.103E-05 -.156E-01 0.633E+00
   -.478E+01 -.727E+00 -.690E+03   0.514E+01 0.730E+00 0.690E+03   -.358E+00 0.468E-02 -.299E+00
   -.654E-04 0.517E+01 -.693E+03   0.575E-04 -.550E+01 0.694E+03   0.452E-05 0.340E+00 -.230E+00
   -.467E+01 0.348E+01 -.203E+04   0.436E+01 -.303E+01 0.202E+04   0.291E+00 -.366E+00 0.569E+01
   -.576E-03 -.711E+01 -.209E+04   0.587E-03 0.701E+01 0.208E+04   0.245E-05 0.283E+00 0.676E+01
   0.279E+00 0.478E-01 0.205E+04   -.284E+00 -.489E-01 -.205E+04   0.366E-02 0.730E-03 -.677E+01
   0.140E-04 -.277E+00 0.205E+04   -.131E-04 0.281E+00 -.205E+04   -.703E-06 -.338E-02 -.677E+01
   0.144E+01 -.151E+01 0.680E+03   -.148E+01 0.156E+01 -.680E+03   0.237E-01 -.319E-01 0.486E+00
   -.148E-04 0.113E+00 0.681E+03   0.199E-04 -.111E+00 -.682E+03   -.342E-05 -.172E-02 0.391E+00
   0.998E+00 0.566E+00 -.681E+03   -.983E+00 -.571E+00 0.681E+03   0.101E-01 -.306E-02 -.184E+00
   -.140E-03 -.926E+00 -.681E+03   0.153E-03 0.907E+00 0.682E+03   -.183E-05 -.824E-02 -.155E+00
   0.213E+01 -.279E+01 -.203E+04   -.155E+01 0.230E+01 0.202E+04   -.451E+00 0.389E+00 0.580E+01
   0.495E-04 0.308E+00 -.203E+04   -.523E-04 -.300E+00 0.203E+04   -.799E-05 -.118E-01 0.563E+01
   0.352E+00 -.482E-01 0.205E+04   -.362E+00 0.491E-01 -.204E+04   0.733E-02 -.640E-03 -.679E+01
   0.144E-04 0.276E+00 0.205E+04   -.140E-04 -.281E+00 -.205E+04   0.173E-05 0.350E-02 -.677E+01
   0.157E+01 0.151E+01 0.679E+03   -.164E+01 -.156E+01 -.680E+03   0.462E-01 0.333E-01 0.496E+00
   0.164E-03 -.118E+00 0.680E+03   -.148E-03 0.113E+00 -.680E+03   -.115E-04 0.352E-02 0.377E+00
   0.478E+01 -.727E+00 -.690E+03   -.514E+01 0.731E+00 0.690E+03   0.358E+00 0.468E-02 -.299E+00
   0.594E-04 0.930E+00 -.681E+03   -.483E-04 -.910E+00 0.681E+03   -.544E-05 0.807E-02 -.174E+00
   0.467E+01 0.348E+01 -.203E+04   -.436E+01 -.303E+01 0.202E+04   -.291E+00 -.366E+00 0.569E+01
   0.655E-03 -.402E+00 -.203E+04   -.639E-03 0.382E+00 0.202E+04   -.239E-04 0.237E-01 0.554E+01
   -.706E+00 0.174E+00 0.510E+03   0.712E+00 -.176E+00 -.510E+03   -.992E-02 0.254E-02 -.269E-01
   -.276E-04 -.111E+01 0.507E+03   0.120E-04 0.106E+01 -.507E+03   0.233E-04 0.639E-01 -.133E+00
   -.235E+00 -.240E+00 0.154E+04   0.241E+00 0.247E+00 -.155E+04   -.825E-02 -.993E-02 0.361E+01
   -.372E-05 0.420E-01 0.154E+04   0.488E-05 -.448E-01 -.155E+04   -.724E-06 0.393E-02 0.361E+01
   -.122E+01 0.611E+00 -.155E+04   0.130E+01 -.714E+00 0.156E+04   -.247E-01 0.134E+00 -.566E+01
   -.886E-04 -.566E+01 -.154E+04   0.125E-03 0.530E+01 0.155E+04   -.464E-04 0.694E+00 -.458E+01
   -.188E+01 -.213E+01 -.504E+03   0.184E+01 0.208E+01 0.504E+03   0.790E-01 0.681E-01 0.586E+00
   0.103E-03 0.771E+00 -.503E+03   -.995E-04 -.813E+00 0.502E+03   -.780E-05 0.640E-01 0.548E+00
   -.111E+01 -.183E+00 0.507E+03   0.105E+01 0.188E+00 -.507E+03   0.684E-01 -.601E-02 -.161E+00
   -.249E-04 0.111E+01 0.507E+03   0.147E-04 -.105E+01 -.507E+03   0.200E-04 -.740E-01 -.186E+00
   -.248E+00 0.240E+00 0.154E+04   0.258E+00 -.247E+00 -.155E+04   -.127E-01 0.983E-02 0.361E+01
   -.164E-04 -.419E-01 0.154E+04   0.172E-04 0.450E-01 -.154E+04   0.398E-05 -.432E-02 0.359E+01
   -.752E+01 -.115E+01 -.155E+04   0.735E+01 0.127E+01 0.155E+04   0.511E+00 -.158E+00 -.476E+01
   -.947E-04 0.102E+02 -.155E+04   0.127E-03 -.102E+02 0.156E+04   -.383E-04 -.388E+00 -.502E+01
   -.253E+01 0.222E+01 -.505E+03   0.249E+01 -.218E+01 0.504E+03   0.440E-01 -.750E-01 0.624E+00
   -.504E-03 -.122E+01 -.530E+03   0.514E-03 0.127E+01 0.531E+03   0.672E-05 -.691E-01 -.917E+00
   0.706E+00 0.174E+00 0.510E+03   -.712E+00 -.176E+00 -.510E+03   0.995E-02 0.254E-02 -.269E-01
   0.405E-04 -.698E+00 0.510E+03   -.500E-04 0.705E+00 -.510E+03   0.675E-05 -.105E-01 -.265E-01
   0.235E+00 -.240E+00 0.154E+04   -.241E+00 0.247E+00 -.155E+04   0.825E-02 -.993E-02 0.361E+01
   0.117E-05 0.281E-01 0.154E+04   -.391E-05 -.278E-01 -.155E+04   0.969E-06 -.361E-03 0.362E+01
   0.122E+01 0.611E+00 -.155E+04   -.130E+01 -.714E+00 0.156E+04   0.247E-01 0.134E+00 -.566E+01
   -.965E-05 -.108E+01 -.155E+04   0.119E-04 0.110E+01 0.156E+04   -.273E-05 0.320E-01 -.563E+01
   0.188E+01 -.213E+01 -.504E+03   -.184E+01 0.208E+01 0.504E+03   -.789E-01 0.681E-01 0.586E+00
   -.233E-03 0.109E+00 -.505E+03   0.250E-03 -.114E+00 0.505E+03   -.160E-04 0.958E-02 0.227E+00
   0.111E+01 -.183E+00 0.507E+03   -.105E+01 0.188E+00 -.507E+03   -.683E-01 -.602E-02 -.161E+00
   0.576E-04 0.690E+00 0.510E+03   -.665E-04 -.693E+00 -.510E+03   0.896E-05 0.574E-02 -.132E-01
   0.248E+00 0.240E+00 0.154E+04   -.258E+00 -.247E+00 -.155E+04   0.127E-01 0.983E-02 0.361E+01
   0.204E-04 -.279E-01 0.154E+04   -.163E-04 0.278E-01 -.155E+04   -.341E-05 0.191E-03 0.361E+01
   0.752E+01 -.115E+01 -.155E+04   -.735E+01 0.127E+01 0.155E+04   -.511E+00 -.158E+00 -.476E+01
   0.230E-03 0.115E+01 -.155E+04   -.230E-03 -.117E+01 0.156E+04   -.938E-05 -.378E-01 -.567E+01
   0.253E+01 0.222E+01 -.505E+03   -.249E+01 -.218E+01 0.504E+03   -.439E-01 -.750E-01 0.624E+00
   0.337E-03 -.102E+00 -.503E+03   -.311E-03 0.102E+00 0.502E+03   -.402E-04 -.380E-02 0.562E+00
 -----------------------------------------------------------------------------------------------
   0.257E-04 -.750E+00 0.167E+02   0.702E-13 -.141E-12 0.364E-11   -.204E-04 0.748E+00 -.167E+02


 POSITION                                       TOTAL-FORCE (eV/Angst)
 -----------------------------------------------------------------------------------
      2.11679      0.00000      7.50000         0.001409     -0.000263      0.360377
      4.23357      2.11679      7.50000        -0.000001      0.002314      0.363519
      2.11679      2.11679      9.61679         0.010608      0.013703      0.017213
      4.23357      0.00000      9.61679         0.000005     -0.007824      0.038738
      2.11906      0.00035     11.74045        -0.024400     -0.008122      0.027573
      4.23357      2.12697     11.75353        -0.000006     -0.002793     -0.075831
      2.11449      2.11357     13.83126        -0.121090     -0.093986      0.116214
      4.23357      0.00359     13.83213         0.000004     -0.082390      0.180014
      2.11679      4.23357      7.50000         0.002427      0.000283      0.365167
      4.23357      6.35036      7.50000         0.000003     -0.002343      0.366888
      2.11679      6.35036      9.61679         0.018942     -0.014201      0.023325
      4.23357      4.23357      9.61679         0.000002      0.005462      0.049801
      2.12788      4.23269     11.75510         0.000671      0.007718     -0.054413
      4.23357      6.33892     11.75617        -0.000003      0.001534     -0.013455
      2.11193      6.35204     13.82736        -0.020109      0.084466      0.184560
      4.23357      4.21502     13.98379         0.000013      0.185684     -0.788015
      6.35036      0.00000      7.50000        -0.001409     -0.000264      0.360376
      0.00000      2.11679      7.50000         0.000000      0.001322      0.360562
      6.35036      2.11679      9.61679        -0.010602      0.013699      0.017209
      0.00000      0.00000      9.61679         0.000002      0.000473      0.021356
      6.34809      0.00035     11.74045         0.024393     -0.008127      0.027575
      0.00000      2.11887     11.74042         0.000011     -0.026543      0.024129
      6.35266      2.11357     13.83126         0.121078     -0.093983      0.116234
      0.00000      0.00017     13.83686        -0.000011     -0.004079      0.120010
      6.35036      4.23357      7.50000        -0.002424      0.000291      0.365167
      0.00000      6.35036      7.50000         0.000002     -0.001315      0.359505
      6.35036      6.35036      9.61679        -0.018939     -0.014196      0.023325
      0.00000      4.23357      9.61679         0.000004     -0.001368      0.037053
      6.33927      4.23269     11.75510        -0.000680      0.007720     -0.054401
      0.00000      6.34764     11.73989         0.000006      0.028103      0.025425
      6.35522      6.35204     13.82736         0.020102      0.084465      0.184574
      0.00000      4.23245     13.83205        -0.000008      0.003104      0.169525
      2.11679      0.00000      9.61679        -0.003525      0.000331      0.048061
      4.23357      2.11679      9.61679         0.000008      0.014607      0.078776
      2.11679      2.11679      7.50000        -0.002328     -0.002792     -0.362251
      4.23357      0.00000      7.50000         0.000000      0.001149     -0.362981
      2.11065      8.46665     13.89613         0.046241      0.031582     -0.227813
      4.23357      2.09186     13.89037        -0.000010      0.335477      0.052481
      2.11528      2.11542     11.73738         0.030776      0.025752      0.004519
      4.23357      8.46538     11.73468        -0.000004      0.022091      0.017745
      2.11679      4.23357      9.61679         0.015568     -0.001154      0.077478
      4.23357      6.35036      9.61679         0.000010     -0.017089      0.074790
      2.11679      6.35036      7.50000        -0.003621      0.002809     -0.362833
      4.23357      4.23357      7.50000         0.000005     -0.001217     -0.367224
      2.09270      4.23320     13.89718         0.339115     -0.036508     -0.000227
      4.23357      6.37892     13.91071        -0.000006     -0.392180     -0.092555
      2.11686      6.35123     11.73855         0.011955     -0.027392     -0.014204
      4.23357      4.23436     11.75688         0.000016     -0.023055      0.048550
      6.35036      0.00000      9.61679         0.003526      0.000339      0.048062
      0.00000      2.11679      9.61679        -0.000003     -0.003645      0.047855
      6.35036      2.11679      7.50000         0.002327     -0.002792     -0.362248
      0.00000      0.00000      7.50000        -0.000002     -0.000083     -0.359992
      6.35650      8.46665     13.89613        -0.046237      0.031577     -0.227830
      0.00000      2.11104     13.89670        -0.000001      0.054385     -0.222774
      6.35186      2.11541     11.73738        -0.030780      0.025767      0.004505
      0.00000      8.46642     11.73563         0.000001      0.004840     -0.042727
      6.35036      4.23357      9.61679        -0.015564     -0.001152      0.077486
      0.00000      6.35036      9.61679        -0.000000      0.002567      0.049707
      6.35036      6.35036      7.50000         0.003623      0.002809     -0.362829
      0.00000      4.23357      7.50000         0.000001      0.000078     -0.362785
      6.37444      4.23320     13.89718        -0.339107     -0.036502     -0.000262
      0.00000      6.35547     13.89552        -0.000009     -0.057745     -0.227434
      6.35029      6.35123     11.73855        -0.011957     -0.027405     -0.014208
      0.00000      4.23373     11.73436        -0.000015     -0.003993      0.023865
 -----------------------------------------------------------------------------------
    total drift:                                0.000005     -0.001594     -0.004584


--------------------------------------------------------------------------------------------------------



  FREE ENERGIE OF THE ION-ELECTRON SYSTEM (eV)
  ---------------------------------------------------
  free  energy   TOTEN  =      -264.55452947 eV

  energy  without entropy=     -264.55452947  energy(sigma->0) =     -264.55452947



--------------------------------------------------------------------------------------------------------


    POTLOK:  cpu time      2.4549: real time      2.4555


--------------------------------------------------------------------------------------------------------


     LOOP+:  cpu time    179.1121: real time    179.3334
    4ORBIT:  cpu time      0.0000: real time      0.0000

 total amount of memory used by VASP MPI-rank0    60692. kBytes
=======================================================================

   base      :      30000. kBytes
   nonl-proj :      11997. kBytes
   fftplans  :       4925. kBytes
   grid      :       7379. kBytes
   one-center:         64. kBytes
   wavefun   :       6327. kBytes

  
  
 General timing and accounting informations for this job:
 ========================================================
  
                  Total CPU time used (sec):      215.499
                            User time (sec):      213.876
                          System time (sec):        1.624
                         Elapsed time (sec):      226.244
  
                   Maximum memory used (kb):      265868.
                   Average memory used (kb):          N/A
  
                          Minor page faults:        55566
                          Major page faults:            0
                 Voluntary context switches:        12408
