 vasp.6.3.0 20Jan22 (build Aug 21 2024 11:13:42) complex                         
 executed on        HPECrayEX_GCC date 2024.08.22  13:55:41
 running  384 mpi-ranks, with    1 threads/rank
 distrk:  each k-point on  384 cores,    1 groups
 distr:  one band on NCORE=   8 cores,   48 groups


--------------------------------------------------------------------------------------------------------


 INCAR:
   SYSTEM = MgO-rocksalt
   ISMEAR = 0
   SIGMA = 0.05
   EDIFF = 1E-6
   ALGO = ALL
   ISTART = 0
   IBRION = -1
   NSW = 0
   ISYM = 0
   DIPOL = 0.5 0.5 0.5
   IDIPOL = 4
   LDIPOL = .TRUE.
   LHFCALC = .TRUE.
   GGA = PE
   IVDW = 13
   VDW_S8 = 1.2007
   VDW_A1 = 0.4009
   VDW_A2 = 5.0293
   ENCUT = 600
   PREC = Accurate
   LASPH = .TRUE.
   LREAL = .FALSE.
   ISPIN = 1
   NELM = 200
   NELMIN = 8
   NCORE = 8
   KPAR = 1
   LWAVE = .FALSE.
   LCHARG = .FALSE.

 POTCAR:    PAW_PBE C 08Apr2002                   
 POTCAR:    PAW_PBE H 15Jun2001                   
 POTCAR:    PAW_PBE C 08Apr2002                   
   SHA256 =  253f7b50bb8d59471dbedb8285d89021f4a42ed1a2c5d38a03a736e69125dd95 C/POTCAR              
   COPYR  = (c) Copyright 08Apr2002 Georg Kresse                                                    
   COPYR  = This file is part of the software VASP. Any use, copying, and all other rights are regul
   COPYR  = If you do not have a valid VASP license, you may not use, copy or distribute this file. 
   VRHFIN =C: s2p2                                                                                  
   LEXCH  = PE                                                                                      
   EATOM  =   147.1560 eV,   10.8157 Ry                                                             
                                                                                                    
   TITEL  = PAW_PBE C 08Apr2002                                                                     
   LULTRA =        F    use ultrasoft PP ?                                                          
   IUNSCR =        1    unscreen: 0-lin 1-nonlin 2-no                                               
   RPACOR =    1.200    partial core radius                                                         
   POMASS =   12.011; ZVAL   =    4.000    mass and valenz                                          
   RCORE  =    1.500    outmost cutoff radius                                                       
   RWIGS  =    1.630; RWIGS  =    0.863    wigner-seitz radius (au A)                               
   ENMAX  =  400.000; ENMIN  =  300.000 eV                                                          
   ICORE  =        2    local potential                                                             
   LCOR   =        T    correct aug charges                                                         
   LPAW   =        T    paw PP                                                                      
   EAUG   =  644.873                                                                                
   DEXC   =    0.000                                                                                
   RMAX   =    1.529    core radius for proj-oper                                                   
   RAUG   =    1.300    factor for augmentation sphere                                              
   RDEP   =    1.501    radius for radial grids                                                     
   RDEPT  =    1.300    core radius for aug-charge                                                  
                                                                                                    
   Atomic configuration                                                                             
    4 entries                                                                                       
     n  l   j            E        occ.                                                              
     1  0  0.50      -273.3789   2.0000                                                             
     2  0  0.50       -13.7508   2.0000                                                             
     2  1  0.50        -5.2854   2.0000                                                             
     3  2  1.50        -5.4423   0.0000                                                             
   Description                                                                                      
     l       E           TYP  RCUT    TYP  RCUT                                                     
     0    -13.7508458     23  1.200                                                                 
     0     -8.2022199     23  1.200                                                                 
     1     -5.2854383     23  1.500                                                                 
     1     34.0145650     23  1.500                                                                 
     2     -5.4423304      7  1.500                                                                 
  local pseudopotential read in
  partial core-charges read in
  partial kinetic energy density read in
  atomic valenz-charges read in
  non local Contribution for L=           0  read in
    real space projection operators read in
  non local Contribution for L=           0  read in
    real space projection operators read in
  non local Contribution for L=           1  read in
    real space projection operators read in
  non local Contribution for L=           1  read in
    real space projection operators read in
    PAW grid and wavefunctions read in

   number of l-projection  operators is LMAX  =           4
   number of lm-projection operators is LMMAX =           8

 POTCAR:    PAW_PBE H 15Jun2001                   
   SHA256 =  030f79b5d3ab3cf0e668861823c8fb652ff669f3e15e46930bd03bfd63a607b6 H/POTCAR              
   COPYR  = (c) Copyright 15Jun2001 Georg Kresse                                                    
   COPYR  = This file is part of the software VASP. Any use, copying, and all other rights are regul
   COPYR  = If you do not have a valid VASP license, you may not use, copy or distribute this file. 
   VRHFIN =H: ultrasoft test                                                                        
   LEXCH  = PE                                                                                      
   EATOM  =    12.4884 eV,    0.9179 Ry                                                             
                                                                                                    
   TITEL  = PAW_PBE H 15Jun2001                                                                     
   LULTRA =        F    use ultrasoft PP ?                                                          
   IUNSCR =        0    unscreen: 0-lin 1-nonlin 2-no                                               
   RPACOR =    0.000    partial core radius                                                         
   POMASS =    1.000; ZVAL   =    1.000    mass and valenz                                          
   RCORE  =    1.100    outmost cutoff radius                                                       
   RWIGS  =    0.700; RWIGS  =    0.370    wigner-seitz radius (au A)                               
   ENMAX  =  250.000; ENMIN  =  200.000 eV                                                          
   RCLOC  =    0.701    cutoff for local pot                                                        
   LCOR   =        T    correct aug charges                                                         
   LPAW   =        T    paw PP                                                                      
   EAUG   =  400.000                                                                                
   RMAX   =    1.123    core radius for proj-oper                                                   
   RAUG   =    1.200    factor for augmentation sphere                                              
   RDEP   =    1.112    radius for radial grids                                                     
   RDEPT  =    0.926    core radius for aug-charge                                                  
                                                                                                    
   Atomic configuration                                                                             
    2 entries                                                                                       
     n  l   j            E        occ.                                                              
     1  0  0.50        -6.4927   1.0000                                                             
     2  1  0.50        -3.4015   0.0000                                                             
   Description                                                                                      
     l       E           TYP  RCUT    TYP  RCUT                                                     
     0     -6.4927494     23  1.100                                                                 
     0      6.8029130     23  1.100                                                                 
     1     -4.0817478     23  1.100                                                                 
  local pseudopotential read in
  atomic valenz-charges read in
  non local Contribution for L=           0  read in
    real space projection operators read in
  non local Contribution for L=           0  read in
    real space projection operators read in
  non local Contribution for L=           1  read in
    real space projection operators read in
    PAW grid and wavefunctions read in

   number of l-projection  operators is LMAX  =           3
   number of lm-projection operators is LMMAX =           5

  PAW_PBE C 08Apr2002                   :
 energy of atom  1       EATOM= -147.1560
 kinetic energy error for atom=    0.0057 (will be added to EATOM!!)
  PAW_PBE H 15Jun2001                   :
 energy of atom  2       EATOM=  -12.4884
 kinetic energy error for atom=    0.0004 (will be added to EATOM!!)


 POSCAR:  C  H
  positions in direct lattice
  No initial velocities read in
 -----------------------------------------------------------------------------
|                                                                             |
|           W    W    AA    RRRRR   N    N  II  N    N   GGGG   !!!           |
|           W    W   A  A   R    R  NN   N  II  NN   N  G    G  !!!           |
|           W    W  A    A  R    R  N N  N  II  N N  N  G       !!!           |
|           W WW W  AAAAAA  RRRRR   N  N N  II  N  N N  G  GGG   !            |
|           WW  WW  A    A  R   R   N   NN  II  N   NN  G    G                |
|           W    W  A    A  R    R  N    N  II  N    N   GGGG   !!!           |
|                                                                             |
|     Specifying the vdW parameters                                           |
|     VDW_S8 = 1.201                                                          |
|     VDW_A1 = 0.401                                                          |
|     VDW_A2 = 5.029                                                          |
|     in the INCAR file will overwrite the defaults for pbe0. Please make     |
|     sure that is what you intended.                                         |
|                                                                             |
 -----------------------------------------------------------------------------

 exchange correlation table for  LEXCH =        8
   RHO(1)=    0.500       N(1)  =     2000
   RHO(2)=  100.500       N(2)  =     4000



--------------------------------------------------------------------------------------------------------


 ion  position               nearest neighbor table
   1  0.537  0.676  0.486-   4 1.10   2 1.53
   2  0.463  0.650  0.513-   8 1.10   7 1.10   6 1.10   1 1.53
   3  0.528  0.353  0.454-
   4  0.568  0.647  0.446-   1 1.10
   5  0.575  0.322  0.536-
   6  0.425  0.642  0.462-   2 1.10
   7  0.432  0.678  0.554-   2 1.10
   8  0.472  0.608  0.543-   2 1.10


IMPORTANT INFORMATION: All symmetrisations will be switched off!
NOSYMM: (Re-)initialisation of all symmetry stuff for point group C_1.


----------------------------------------------------------------------------------------

                                     Primitive cell                                     

  volume of cell :    6910.3243

  direct lattice vectors                    reciprocal lattice vectors
    17.649290688  0.000000000  0.000000000     0.056659501  0.000000000  0.000000000
     0.000000000 23.283650254  0.000000000     0.000000000  0.042948592  0.000000000
     0.000000000  0.000000000 16.815899600     0.000000000  0.000000000  0.059467529

  length of vectors
    17.649290688 23.283650254 16.815899600     0.056659501  0.042948592  0.059467529

  position of ions in fractional coordinates (direct lattice)
     0.537271581  0.676334139  0.485567347
     0.462628011  0.649560328  0.512635098
     0.527812202  0.353412993  0.453722178
     0.568204016  0.646708283  0.446006469
     0.575053744  0.322114442  0.535916428
     0.424946256  0.642004450  0.461572893
     0.432059487  0.677885558  0.553993531
     0.471964493  0.608173347  0.542598023

  ion indices of the primitive-cell ions
   primitive index   ion index
                 1           1
                 2           2
                 3           3
                 4           4
                 5           5
                 6           6
                 7           7
                 8           8

----------------------------------------------------------------------------------------



 KPOINTS: pymatgen v2020.8.13 with grid density = 

Automatic generation of k-mesh.
 Grid dimensions read from file:
 generate k-points for:    1    1    1

 Generating k-lattice:

  Cartesian coordinates                     Fractional coordinates (reciprocal lattice)
     0.056659501  0.000000000  0.000000000     1.000000000  0.000000000  0.000000000
     0.000000000  0.042948592  0.000000000     0.000000000  1.000000000  0.000000000
     0.000000000  0.000000000  0.059467529     0.000000000  0.000000000  1.000000000

  Length of vectors
     0.056659501  0.042948592  0.059467529

  Shift w.r.t. Gamma in fractional coordinates (k-lattice)
     0.000000000  0.000000000  0.000000000

 
 Subroutine IBZKPT returns following result:
 ===========================================
 
 Found      1 irreducible k-points:
 
 Following reciprocal coordinates:
            Coordinates               Weight
  0.000000  0.000000  0.000000      1.000000
 
 Following cartesian coordinates:
            Coordinates               Weight
  0.000000  0.000000  0.000000      1.000000
 
 
 Subroutine IBZKPT_HF returns following result:
 ==============================================
 
 Found      1 k-points in 1st BZ
 the following      1 k-points will be used (e.g. in the exchange kernel)
 Following reciprocal coordinates:   # in IRBZ
  0.000000  0.000000  0.000000    1.00000000   1 t-inv F


--------------------------------------------------------------------------------------------------------




 Dimension of arrays:
   k-points           NKPTS =      1   k-points in BZ     NKDIM =      1   number of bands    NBANDS=     48
   number of dos      NEDOS =    301   number of ions     NIONS =      8
   non local maximal  LDIM  =      4   non local SUM 2l+1 LMDIM =      8
   total plane-waves  NPLWV = ******
   max r-space proj   IRMAX =      1   max aug-charges    IRDMAX=   6809
   dimension x,y,z NGX =   144 NGY =  192 NGZ =  140
   dimension x,y,z NGXF=   288 NGYF=  384 NGZF=  280
   support grid    NGXF=   288 NGYF=  384 NGZF=  280
   ions per type =               2   6
   NGX,Y,Z   is equivalent  to a cutoff of  13.56, 13.71, 13.84 a.u.
   NGXF,Y,Z  is equivalent  to a cutoff of  27.13, 27.42, 27.68 a.u.

 SYSTEM =  MgO-rocksalt                            
 POSCAR =   C  H                                   

--------------------------------------------------------------------------------------------------------


  energy-cutoff  :      600.00
  volume of cell :     6910.32
      direct lattice vectors                 reciprocal lattice vectors
    17.649290688  0.000000000  0.000000000     0.056659501  0.000000000  0.000000000
     0.000000000 23.283650254  0.000000000     0.000000000  0.042948592  0.000000000
     0.000000000  0.000000000 16.815899600     0.000000000  0.000000000  0.059467529

  length of vectors
    17.649290688 23.283650254 16.815899600     0.056659501  0.042948592  0.059467529



 k-points in units of 2pi/SCALE and weight: pymatgen v2020.8.13 with grid density = 
   0.00000000  0.00000000  0.00000000       1.000

 k-points in reciprocal lattice and weights: pymatgen v2020.8.13 with grid density = 
   0.00000000  0.00000000  0.00000000       1.000

 position of ions in fractional coordinates (direct lattice) 
   0.53727158  0.67633414  0.48556735
   0.46262801  0.64956033  0.51263510
   0.52781220  0.35341299  0.45372218
   0.56820402  0.64670828  0.44600647
   0.57505374  0.32211444  0.53591643
   0.42494626  0.64200445  0.46157289
   0.43205949  0.67788556  0.55399353
   0.47196449  0.60817335  0.54259802

 position of ions in cartesian coordinates  (Angst):
   9.48246232 15.74752754  8.16525175
   8.16505624 15.12413550  8.62042034
   9.31551098  8.22874453  7.62974659
  10.02839785 15.05772948  7.50000000
  10.14929069  7.50000000  9.01191685
   7.50000000 14.94820707  7.76176343
   7.62554349 15.78365025  9.31589960
   8.32983853 14.16049552  9.12427387



--------------------------------------------------------------------------------------------------------

--------------------------------------- Iteration      FINAL  ---------------------------------------


--------------------OUTCAR has been truncated-------------------------


--------------------OUTCAR has been truncated-------------------------


--------------------OUTCAR has been truncated-------------------------


--------------------OUTCAR has been truncated-------------------------


--------------------OUTCAR has been truncated-------------------------


--------------------OUTCAR has been truncated-------------------------


--------------------OUTCAR has been truncated-------------------------


--------------------OUTCAR has been truncated-------------------------


--------------------OUTCAR has been truncated-------------------------


--------------------OUTCAR has been truncated-------------------------



 VOLUME and BASIS-vectors are now :
 -----------------------------------------------------------------------------
  energy-cutoff  :      600.00
  volume of cell :     6910.32
      direct lattice vectors                 reciprocal lattice vectors
    17.649290688  0.000000000  0.000000000     0.056659501  0.000000000  0.000000000
     0.000000000 23.283650254  0.000000000     0.000000000  0.042948592  0.000000000
     0.000000000  0.000000000 16.815899600     0.000000000  0.000000000  0.059467529

  length of vectors
    17.649290688 23.283650254 16.815899600     0.056659501  0.042948592  0.059467529


 FORCES acting on ions:
    Electron-Ion                     Ewald-Force                    Non-Local-Force
 -----------------------------------------------------------------------------------------------
   -.826E+02 -.660E+02 0.156E+02   0.891E+02 0.845E+02 -.102E+02   -.725E+01 -.175E+02 -.454E+01
   0.516E+02 0.190E+02 -.203E+02   -.508E+02 -.174E+02 0.209E+02   0.184E+00 -.578E+00 -.594E+00
   0.325E+01 -.132E+00 0.612E+01   -.189E+01 -.106E+01 -.386E+01   0.306E+00 -.265E+00 0.510E+00
   -.358E+02 0.252E+02 0.338E+02   0.386E+02 -.289E+02 -.373E+02   -.294E+01 0.318E+01 0.332E+01
   -.391E+01 0.528E+01 -.597E+01   0.255E+01 -.409E+01 0.371E+01   -.308E+00 0.271E+00 -.509E+00
   0.413E+02 0.108E+02 0.423E+02   -.445E+02 -.119E+02 -.466E+02   0.323E+01 0.794E+00 0.401E+01
   0.336E+02 -.324E+02 -.384E+02   -.362E+02 0.357E+02 0.418E+02   0.262E+01 -.327E+01 -.341E+01
   -.226E+01 0.520E+02 -.292E+02   0.307E+01 -.569E+02 0.315E+02   -.737E+00 0.456E+01 -.246E+01
 -----------------------------------------------------------------------------------------------
   0.525E+01 0.137E+02 0.395E+01   0.000E+00 0.000E+00 0.000E+00   -.490E+01 -.128E+02 -.368E+01


 POSITION                                       TOTAL-FORCE (eV/Angst)
 -----------------------------------------------------------------------------------
      9.48246     15.74753      8.16525        -1.256792     -0.097557      0.627135
      8.16506     15.12414      8.62042         1.091621      1.000914     -0.013603
      9.31551      8.22874      7.62975         1.682592     -1.471953      2.788785
     10.02840     15.05773      7.50000        -0.269314     -0.421980     -0.055589
     10.14929      7.50000      9.01192        -1.682971      1.472377     -2.788912
      7.50000     14.94821      7.76176         0.203812     -0.222047     -0.114706
      7.62554     15.78365      9.31590         0.192430     -0.139844     -0.179621
      8.32984     14.16050      9.12427         0.038622     -0.119910     -0.263489
 -----------------------------------------------------------------------------------
    total drift:                                0.000715      0.000214     -0.000187


--------------------------------------------------------------------------------------------------------



  FREE ENERGIE OF THE ION-ELECTRON SYSTEM (eV)
  ---------------------------------------------------
  free  energy   TOTEN  =       -39.08268805 eV

  energy  without entropy=      -39.08268805  energy(sigma->0) =      -39.08268805



--------------------------------------------------------------------------------------------------------


    POTLOK:  cpu time      0.1855: real time      0.1855


--------------------------------------------------------------------------------------------------------


     LOOP+:  cpu time    147.7974: real time    148.0621
    4ORBIT:  cpu time      0.0000: real time      0.0000

 total amount of memory used by VASP MPI-rank0   464423. kBytes
=======================================================================

   base      :      30000. kBytes
   nonl-proj :       7385. kBytes
   fftplans  :      30255. kBytes
   grid      :      25460. kBytes
   one-center:          3. kBytes
   HF        :          4. kBytes
   nonlr-proj:        405. kBytes
   wavefun   :       1386. kBytes
   fock_wrk  :     369525. kBytes

  
  
 General timing and accounting informations for this job:
 ========================================================
  
                  Total CPU time used (sec):      170.559
                            User time (sec):      158.807
                          System time (sec):       11.753
                         Elapsed time (sec):      173.416
  
                   Maximum memory used (kb):      730428.
                   Average memory used (kb):          N/A
  
                          Minor page faults:      1046023
                          Major page faults:         1170
                 Voluntary context switches:        12890
