 vasp.6.3.0 20Jan22 (build Aug 21 2024 11:13:42) complex                         
 executed on        HPECrayEX_GCC date 2024.09.03  17:04:56
 running 1024 mpi-ranks, with    1 threads/rank
 distrk:  each k-point on 1024 cores,    1 groups
 distr:  one band on NCORE=   8 cores,  128 groups


--------------------------------------------------------------------------------------------------------


 INCAR:
   SYSTEM = MgO-rocksalt
   ISMEAR = 0
   SIGMA = 0.05
   EDIFF = 1E-6
   ALGO = ALL
   ISTART = 0
   IBRION = -1
   NSW = 0
   ISYM = 0
   DIPOL = 0.5 0.5 0.5
   IDIPOL = 3
   LDIPOL = .TRUE.
   LHFCALC = .TRUE.
   GGA = B5
   AEXX = 0.2
   AGGAX = 0.72
   AGGAC = 0.81
   ALDAC = 0.19
   IVDW = 1
   VDW_S6 = 1.05
   VDW_C6 = 0.63 0.70
   VDW_R0 = 1.243 1.342
   ENCUT = 600
   PREC = Accurate
   LASPH = .TRUE.
   LREAL = .FALSE.
   ISPIN = 1
   NELM = 200
   NELMIN = 8
   NCORE = 8
   KPAR = 1
   LWAVE = .FALSE.
   LCHARG = .FALSE.

 POTCAR:    PAW_PBE Mg_pv 13Apr2007               
 POTCAR:    PAW_PBE O 08Apr2002                   
 POTCAR:    PAW_PBE Mg_pv 13Apr2007               
   SHA256 =  f474ac0dd33840b9ae76c01d57fea79fdf77cdfbb07d5ade72c65f83c709b62b Mg_pv/POTCAR          
   COPYR  = (c) Copyright 13Apr2007 Georg Kresse                                                    
   COPYR  = This file is part of the software VASP. Any use, copying, and all other rights are regul
   COPYR  = If you do not have a valid VASP license, you may not use, copy or distribute this file. 
   VRHFIN =Mg: p6s2                                                                                 
   LEXCH  = PE                                                                                      
   EATOM  =  1056.7344 eV,   77.6678 Ry                                                             
                                                                                                    
   TITEL  = PAW_PBE Mg_pv 13Apr2007                                                                 
   LULTRA =        F    use ultrasoft PP ?                                                          
   IUNSCR =        1    unscreen: 0-lin 1-nonlin 2-no                                               
   RPACOR =    1.500    partial core radius                                                         
   POMASS =   24.305; ZVAL   =    8.000    mass and valenz                                          
   RCORE  =    2.000    outmost cutoff radius                                                       
   RWIGS  =    2.000; RWIGS  =    1.058    wigner-seitz radius (au A)                               
   ENMAX  =  403.929; ENMIN  =  302.947 eV                                                          
   RCLOC  =    1.506    cutoff for local pot                                                        
   LCOR   =        T    correct aug charges                                                         
   LPAW   =        T    paw PP                                                                      
   EAUG   =  758.780                                                                                
   DEXC   =    0.000                                                                                
   RMAX   =    2.045    core radius for proj-oper                                                   
   RAUG   =    1.300    factor for augmentation sphere                                              
   RDEP   =    2.025    radius for radial grids                                                     
   RDEPT  =    1.557    core radius for aug-charge                                                  
                                                                                                    
   Atomic configuration                                                                             
    5 entries                                                                                       
     n  l   j            E        occ.                                                              
     1  0  0.50     -1259.6230   2.0000                                                             
     2  0  0.50       -79.8442   2.0000                                                             
     2  1  1.50       -46.6121   6.0000                                                             
     3  0  0.50        -4.7055   2.0000                                                             
     3  2  1.50        -1.3606   0.0000                                                             
   Description                                                                                      
     l       E           TYP  RCUT    TYP  RCUT                                                     
     1    -46.6121073     23  1.600                                                                 
     1      2.7211652     23  1.600                                                                 
     0     -4.7054661     23  2.000                                                                 
     0     61.2262170     23  2.000                                                                 
     2     -1.3605826     23  2.000                                                                 
  local pseudopotential read in
  partial core-charges read in
  partial kinetic energy density read in
  atomic valenz-charges read in
  non local Contribution for L=           1  read in
    real space projection operators read in
  non local Contribution for L=           1  read in
    real space projection operators read in
  non local Contribution for L=           0  read in
    real space projection operators read in
  non local Contribution for L=           0  read in
    real space projection operators read in
  non local Contribution for L=           2  read in
    real space projection operators read in
    PAW grid and wavefunctions read in

   number of l-projection  operators is LMAX  =           5
   number of lm-projection operators is LMMAX =          13

 POTCAR:    PAW_PBE O 08Apr2002                   
   SHA256 =  818f92134a0a090dccd8ba1447fa70422a3b330e708bb4f08108d8ae51209ddf O/POTCAR              
   COPYR  = (c) Copyright 08Apr2002 Georg Kresse                                                    
   COPYR  = This file is part of the software VASP. Any use, copying, and all other rights are regul
   COPYR  = If you do not have a valid VASP license, you may not use, copy or distribute this file. 
   VRHFIN =O: s2p4                                                                                  
   LEXCH  = PE                                                                                      
   EATOM  =   432.3788 eV,   31.7789 Ry                                                             
                                                                                                    
   TITEL  = PAW_PBE O 08Apr2002                                                                     
   LULTRA =        F    use ultrasoft PP ?                                                          
   IUNSCR =        1    unscreen: 0-lin 1-nonlin 2-no                                               
   RPACOR =    1.200    partial core radius                                                         
   POMASS =   16.000; ZVAL   =    6.000    mass and valenz                                          
   RCORE  =    1.520    outmost cutoff radius                                                       
   RWIGS  =    1.550; RWIGS  =    0.820    wigner-seitz radius (au A)                               
   ENMAX  =  400.000; ENMIN  =  300.000 eV                                                          
   ICORE  =        2    local potential                                                             
   LCOR   =        T    correct aug charges                                                         
   LPAW   =        T    paw PP                                                                      
   EAUG   =  605.392                                                                                
   DEXC   =    0.000                                                                                
   RMAX   =    1.553    core radius for proj-oper                                                   
   RAUG   =    1.300    factor for augmentation sphere                                              
   RDEP   =    1.550    radius for radial grids                                                     
   RDEPT  =    1.329    core radius for aug-charge                                                  
                                                                                                    
   Atomic configuration                                                                             
    4 entries                                                                                       
     n  l   j            E        occ.                                                              
     1  0  0.50      -514.6923   2.0000                                                             
     2  0  0.50       -23.9615   2.0000                                                             
     2  1  0.50        -9.0305   4.0000                                                             
     3  2  1.50        -9.5241   0.0000                                                             
   Description                                                                                      
     l       E           TYP  RCUT    TYP  RCUT                                                     
     0    -23.9615318     23  1.200                                                                 
     0     -9.5240782     23  1.200                                                                 
     1     -9.0304911     23  1.520                                                                 
     1      8.1634956     23  1.520                                                                 
     2     -9.5240782      7  1.500                                                                 
  local pseudopotential read in
  partial core-charges read in
  partial kinetic energy density read in
  kinetic energy density of atom read in
  atomic valenz-charges read in
  non local Contribution for L=           0  read in
    real space projection operators read in
  non local Contribution for L=           0  read in
    real space projection operators read in
  non local Contribution for L=           1  read in
    real space projection operators read in
  non local Contribution for L=           1  read in
    real space projection operators read in
    PAW grid and wavefunctions read in

   number of l-projection  operators is LMAX  =           4
   number of lm-projection operators is LMMAX =           8

 -----------------------------------------------------------------------------
|                                                                             |
|               ----> ADVICE to this user running VASP <----                  |
|                                                                             |
|     You have a (more or less) 'large supercell' and for larger cells it     |
|     might be more efficient to use real-space projection operators.         |
|     Therefore, try LREAL= Auto in the INCAR file.                           |
|     Mind: For very accurate calculation, you might also keep the            |
|     reciprocal projection scheme (i.e. LREAL=.FALSE.).                      |
|                                                                             |
 -----------------------------------------------------------------------------

 -----------------------------------------------------------------------------
|                                                                             |
|               ----> ADVICE to this user running VASP <----                  |
|                                                                             |
|     You enforced a specific xc type in the INCAR file but a different       |
|     type was found in the POTCAR file.                                      |
|     I HOPE YOU KNOW WHAT YOU ARE DOING!                                     |
|                                                                             |
 -----------------------------------------------------------------------------

  PAW_PBE Mg_pv 13Apr2007               :
 energy of atom  1       EATOM=-1056.7344
 kinetic energy error for atom=    0.0221 (will be added to EATOM!!)
  PAW_PBE O 08Apr2002                   :
 energy of atom  2       EATOM= -432.3788
 kinetic energy error for atom=    0.0168 (will be added to EATOM!!)


 POSCAR: Mg  O
  positions in direct lattice
  No initial velocities read in
 exchange correlation table for  LEXCH =       12
   RHO(1)=    0.500       N(1)  =     2000
   RHO(2)=  100.500       N(2)  =     4000



--------------------------------------------------------------------------------------------------------


 ion  position               nearest neighbor table
   1  0.250  0.000  0.352-  33 2.11  35 2.11  36 2.11  43 2.11  52 2.11
   2  0.500  0.250  0.352-  34 2.11  35 2.11  36 2.11  44 2.11  51 2.11
   3  0.250  0.250  0.451-  35 2.11  34 2.11  33 2.11  41 2.11  50 2.11  39 2.11
   4  0.500  0.000  0.451-  36 2.11  34 2.11  33 2.11  42 2.11  49 2.11  40 2.12
   5  0.250  0.000  0.550-  40 2.11  39 2.11  47 2.11  56 2.11  33 2.12  37 2.14
   6  0.500  0.250  0.550-  55 2.11  40 2.11  48 2.11  39 2.11  34 2.12  38 2.14
   7  0.250  0.250  0.648-  39 2.10  54 2.10  38 2.11  37 2.11  45 2.11
   8  0.500  0.000  0.649-  38 2.11  40 2.11  46 2.11  37 2.11  53 2.12
   9  0.250  0.500  0.352-  41 2.11  35 2.11  43 2.11  44 2.11  60 2.11
  10  0.500  0.750  0.352-  42 2.11  36 2.11  43 2.11  44 2.11  59 2.11
  11  0.250  0.750  0.451-  43 2.11  41 2.11  42 2.11  33 2.11  58 2.11  47 2.11
  12  0.500  0.500  0.451-  44 2.11  41 2.11  42 2.11  34 2.11  57 2.11  48 2.12
  13  0.250  0.500  0.550-  48 2.11  47 2.11  39 2.11  64 2.11  41 2.12  45 2.14
  14  0.500  0.750  0.550-  63 2.11  40 2.11  48 2.11  47 2.11  42 2.12  46 2.14
  15  0.250  0.750  0.648-  47 2.10  62 2.10  46 2.11  45 2.11  37 2.11
  16  0.500  0.500  0.649-  46 2.11  48 2.11  38 2.11  45 2.11  61 2.12
  17  0.750  0.000  0.352-  49 2.11  36 2.11  51 2.11  52 2.11  59 2.11
  18  0.000  0.250  0.352-  50 2.11  35 2.11  51 2.11  52 2.11  60 2.11
  19  0.750  0.250  0.451-  51 2.11  49 2.11  50 2.11  34 2.11  57 2.11  55 2.12
  20  0.000  0.000  0.451-  52 2.11  49 2.11  50 2.11  33 2.11  58 2.11  56 2.11
  21  0.750  0.000  0.550-  40 2.11  55 2.11  63 2.11  56 2.11  49 2.12  53 2.14
  22  1.000  0.250  0.550-  55 2.11  64 2.11  56 2.11  39 2.11  50 2.12  54 2.14
  23  0.750  0.250  0.649-  61 2.11  55 2.11  53 2.11  54 2.11  38 2.12
  24  0.000  0.000  0.648-  56 2.10  37 2.10  53 2.11  62 2.11  54 2.11
  25  0.750  0.500  0.352-  57 2.11  51 2.11  44 2.11  59 2.11  60 2.11
  26  0.000  0.750  0.352-  58 2.11  52 2.11  43 2.11  59 2.11  60 2.11
  27  0.750  0.750  0.451-  59 2.11  49 2.11  57 2.11  58 2.11  42 2.11  63 2.12
  28  0.000  0.500  0.451-  60 2.11  50 2.11  57 2.11  58 2.11  41 2.11  64 2.11
  29  0.750  0.500  0.550-  48 2.11  63 2.11  55 2.11  64 2.11  57 2.12  61 2.14
  30  1.000  0.750  0.550-  63 2.11  64 2.11  56 2.11  47 2.11  58 2.12  62 2.14
  31  0.750  0.750  0.649-  53 2.11  63 2.11  61 2.11  62 2.11  46 2.12
  32  0.000  0.500  0.648-  64 2.10  45 2.10  61 2.11  54 2.11  62 2.11
  33  0.250  0.000  0.451-   1 2.11   3 2.11   4 2.11  11 2.11  20 2.11   5 2.12
  34  0.500  0.250  0.451-   2 2.11   3 2.11   4 2.11  12 2.11  19 2.11   6 2.12
  35  0.250  0.250  0.352-   3 2.11   2 2.11   1 2.11   9 2.11  18 2.11
  36  0.500  0.000  0.352-   4 2.11   2 2.11   1 2.11  10 2.11  17 2.11
  37  0.249  0.000  0.650-  24 2.10   7 2.11  15 2.11   8 2.11   5 2.14
  38  0.500  0.250  0.650-   8 2.11   7 2.11  16 2.11  23 2.12   6 2.14
  39  0.250  0.250  0.550-   7 2.10   5 2.11  13 2.11   6 2.11   3 2.11  22 2.11
  40  0.500  0.000  0.550-  21 2.11   5 2.11  14 2.11   6 2.11   8 2.11   4 2.12
  41  0.250  0.500  0.451-   9 2.11   3 2.11  11 2.11  12 2.11  28 2.11  13 2.12
  42  0.500  0.750  0.451-  10 2.11   4 2.11  11 2.11  12 2.11  27 2.11  14 2.12
  43  0.250  0.750  0.352-  11 2.11   9 2.11  10 2.11   1 2.11  26 2.11
  44  0.500  0.500  0.352-  12 2.11   9 2.11  10 2.11   2 2.11  25 2.11
  45  0.249  0.500  0.650-  32 2.10  15 2.11   7 2.11  16 2.11  13 2.14
  46  0.500  0.750  0.650-  16 2.11  15 2.11   8 2.11  31 2.12  14 2.14
  47  0.250  0.750  0.550-  15 2.10   5 2.11  13 2.11  14 2.11  11 2.11  30 2.11
  48  0.500  0.500  0.550-  13 2.11  29 2.11  16 2.11   6 2.11  14 2.11  12 2.12
  49  0.750  0.000  0.451-  17 2.11   4 2.11  19 2.11  20 2.11  27 2.11  21 2.12
  50  0.000  0.250  0.451-  18 2.11   3 2.11  19 2.11  20 2.11  28 2.11  22 2.12
  51  0.750  0.250  0.352-  19 2.11  17 2.11  18 2.11   2 2.11  25 2.11
  52  0.000  0.000  0.352-  20 2.11  17 2.11  18 2.11   1 2.11  26 2.11
  53  0.750  0.000  0.650-  31 2.11  24 2.11  23 2.11   8 2.12  21 2.14
  54  0.001  0.250  0.650-   7 2.10  32 2.11  24 2.11  23 2.11  22 2.14
  55  0.750  0.250  0.550-  22 2.11   6 2.11  21 2.11  29 2.11  23 2.11  19 2.12
  56  1.000  0.000  0.550-  24 2.10  30 2.11  22 2.11  21 2.11  20 2.11   5 2.11
  57  0.750  0.500  0.451-  25 2.11  19 2.11  12 2.11  27 2.11  28 2.11  29 2.12
  58  0.000  0.750  0.451-  26 2.11  20 2.11  11 2.11  27 2.11  28 2.11  30 2.12
  59  0.750  0.750  0.352-  27 2.11  17 2.11  25 2.11  26 2.11  10 2.11
  60  0.000  0.500  0.352-  28 2.11  18 2.11  25 2.11  26 2.11   9 2.11
  61  0.750  0.500  0.650-  23 2.11  32 2.11  31 2.11  16 2.12  29 2.14
  62  0.001  0.750  0.650-  15 2.10  24 2.11  32 2.11  31 2.11  30 2.14
  63  0.750  0.750  0.550-  30 2.11  14 2.11  21 2.11  29 2.11  31 2.11  27 2.12
  64  1.000  0.500  0.550-  32 2.10  22 2.11  30 2.11  29 2.11  28 2.11  13 2.11


IMPORTANT INFORMATION: All symmetrisations will be switched off!
NOSYMM: (Re-)initialisation of all symmetry stuff for point group C_1.


----------------------------------------------------------------------------------------

                                     Primitive cell                                     

  volume of cell :    1519.6535

  direct lattice vectors                    reciprocal lattice vectors
     8.440582262  0.000000000  0.000000000     0.118475239  0.000000000  0.000000000
     0.000000000  8.440582262  0.000000000     0.000000000  0.118475239  0.000000000
     0.000000000  0.000000000 21.330436697     0.000000000  0.000000000  0.046881366

  length of vectors
     8.440582262  8.440582262 21.330436697     0.118475239  0.118475239  0.046881366

  position of ions in fractional coordinates (direct lattice)
     0.250000000  0.000000000  0.351610242
     0.500000000  0.250000000  0.351610242
     0.250000000  0.250000000  0.450536747
     0.500000000  0.000000000  0.450536747
     0.250224690  0.000046991  0.549867504
     0.500231897  0.250027359  0.550102720
     0.249800584  0.250071873  0.647835510
     0.499714720  0.000158054  0.648745206
     0.250000000  0.500000000  0.351610242
     0.500000000  0.750000000  0.351610242
     0.250000000  0.750000000  0.450536747
     0.500000000  0.500000000  0.450536747
     0.250217395  0.500045624  0.549876756
     0.500231127  0.750037191  0.550100771
     0.249802018  0.750108527  0.647836743
     0.499710836  0.500159284  0.648725973
     0.750000000  0.000000000  0.351610242
     0.000000000  0.250000000  0.351610242
     0.750000000  0.250000000  0.450536747
     0.000000000  0.000000000  0.450536747
     0.749801425  0.000028354  0.550098713
     0.999777575  0.250051927  0.549880149
     0.750302333  0.250132189  0.648778965
     0.000223629  0.000091402  0.647853053
     0.750000000  0.500000000  0.351610242
     0.000000000  0.750000000  0.351610242
     0.750000000  0.750000000  0.450536747
     0.000000000  0.500000000  0.450536747
     0.749810072  0.500026670  0.550116489
     0.999779264  0.750047056  0.549881125
     0.750302344  0.750186134  0.648777644
     0.000226577  0.500090522  0.647866231
     0.250000000  0.000000000  0.450536747
     0.500000000  0.250000000  0.450536747
     0.250000000  0.250000000  0.351610242
     0.500000000  0.000000000  0.351610242
     0.249478678  0.000114183  0.650007073
     0.499723507  0.250037701  0.650331726
     0.250063939  0.250036691  0.549555343
     0.500019618  0.000028690  0.549810884
     0.250000000  0.500000000  0.450536747
     0.500000000  0.750000000  0.450536747
     0.250000000  0.750000000  0.351610242
     0.500000000  0.500000000  0.351610242
     0.249490791  0.500113809  0.650002894
     0.499723680  0.750049129  0.650330234
     0.250064611  0.750047921  0.549555938
     0.500010345  0.500026703  0.549820297
     0.750000000  0.000000000  0.450536747
     0.000000000  0.250000000  0.450536747
     0.750000000  0.250000000  0.351610242
     0.000000000  0.000000000  0.351610242
     0.750286863  0.000043360  0.650369162
     0.000536943  0.250108046  0.650057661
     0.750022687  0.250016414  0.549830742
     0.999928229  0.000048124  0.549570564
     0.750000000  0.500000000  0.450536747
     0.000000000  0.750000000  0.450536747
     0.750000000  0.750000000  0.351610242
     0.000000000  0.500000000  0.351610242
     0.750279731  0.500042915  0.650345919
     0.000537170  0.750123762  0.650058153
     0.750024104  0.750036121  0.549830444
     0.999935467  0.500046075  0.549563950

  ion indices of the primitive-cell ions
   primitive index   ion index
                 1           1
                 2           2
                 3           3
                 4           4
                 5           5
                 6           6
                 7           7
                 8           8
                 9           9
                10          10
                11          11
                12          12
                13          13
                14          14
                15          15
                16          16
                17          17
                18          18
                19          19
                20          20
                21          21
                22          22
                23          23
                24          24
                25          25
                26          26
                27          27
                28          28
                29          29
                30          30
                31          31
                32          32
                33          33
                34          34
                35          35
                36          36
                37          37
                38          38
                39          39
                40          40
                41          41
                42          42
                43          43
                44          44
                45          45
                46          46
                47          47
                48          48
                49          49
                50          50
                51          51
                52          52
                53          53
                54          54
                55          55
                56          56
                57          57
                58          58
                59          59
                60          60
                61          61
                62          62
                63          63
                64          64

----------------------------------------------------------------------------------------



 KPOINTS: pymatgen v2020.8.13 with grid density = 

Automatic generation of k-mesh.
 Grid dimensions read from file:
 generate k-points for:    2    2    1

 Generating k-lattice:

  Cartesian coordinates                     Fractional coordinates (reciprocal lattice)
     0.059237619  0.000000000  0.000000000     0.500000000  0.000000000  0.000000000
     0.000000000  0.059237619  0.000000000     0.000000000  0.500000000  0.000000000
     0.000000000  0.000000000  0.046881366     0.000000000  0.000000000  1.000000000

  Length of vectors
     0.059237619  0.059237619  0.046881366

  Shift w.r.t. Gamma in fractional coordinates (k-lattice)
     0.000000000  0.000000000  0.000000000

 
 Subroutine IBZKPT returns following result:
 ===========================================
 
 Found      4 irreducible k-points:
 
 Following reciprocal coordinates:
            Coordinates               Weight
  0.000000  0.000000  0.000000      1.000000
  0.500000  0.000000  0.000000      1.000000
  0.000000  0.500000  0.000000      1.000000
  0.500000  0.500000  0.000000      1.000000
 
 Following cartesian coordinates:
            Coordinates               Weight
  0.000000  0.000000  0.000000      1.000000
  0.059238  0.000000  0.000000      1.000000
  0.000000  0.059238  0.000000      1.000000
  0.059238  0.059238  0.000000      1.000000
 
 
 Subroutine IBZKPT_HF returns following result:
 ==============================================
 
 Found      4 k-points in 1st BZ
 the following      4 k-points will be used (e.g. in the exchange kernel)
 Following reciprocal coordinates:   # in IRBZ
  0.000000  0.000000  0.000000    0.25000000   1 t-inv F
  0.500000  0.000000  0.000000    0.25000000   2 t-inv F
  0.000000  0.500000  0.000000    0.25000000   3 t-inv F
  0.500000  0.500000  0.000000    0.25000000   4 t-inv F


--------------------------------------------------------------------------------------------------------




 Dimension of arrays:
   k-points           NKPTS =      4   k-points in BZ     NKDIM =      4   number of bands    NBANDS=    384
   number of dos      NEDOS =    301   number of ions     NIONS =     64
   non local maximal  LDIM  =      5   non local SUM 2l+1 LMDIM =     13
   total plane-waves  NPLWV = 882000
   max r-space proj   IRMAX =      1   max aug-charges    IRDMAX=  11637
   dimension x,y,z NGX =    70 NGY =   70 NGZ =  180
   dimension x,y,z NGXF=   140 NGYF=  140 NGZF=  360
   support grid    NGXF=   140 NGYF=  140 NGZF=  360
   ions per type =              32  32
   NGX,Y,Z   is equivalent  to a cutoff of  13.79, 13.79, 14.03 a.u.
   NGXF,Y,Z  is equivalent  to a cutoff of  27.57, 27.57, 28.06 a.u.

 SYSTEM =  MgO-rocksalt                            
 POSCAR =  Mg  O                                   

--------------------------------------------------------------------------------------------------------


  energy-cutoff  :      600.00
  volume of cell :     1519.65
      direct lattice vectors                 reciprocal lattice vectors
     8.440582262  0.000000000  0.000000000     0.118475239  0.000000000  0.000000000
     0.000000000  8.440582262  0.000000000     0.000000000  0.118475239  0.000000000
     0.000000000  0.000000000 21.330436697     0.000000000  0.000000000  0.046881366

  length of vectors
     8.440582262  8.440582262 21.330436697     0.118475239  0.118475239  0.046881366



 k-points in units of 2pi/SCALE and weight: pymatgen v2020.8.13 with grid density = 
   0.00000000  0.00000000  0.00000000       0.250
   0.05923762  0.00000000  0.00000000       0.250
   0.00000000  0.05923762  0.00000000       0.250
   0.05923762  0.05923762  0.00000000       0.250

 k-points in reciprocal lattice and weights: pymatgen v2020.8.13 with grid density = 
   0.00000000  0.00000000  0.00000000       0.250
   0.50000000  0.00000000  0.00000000       0.250
   0.00000000  0.50000000  0.00000000       0.250
   0.50000000  0.50000000  0.00000000       0.250

 position of ions in fractional coordinates (direct lattice) 
   0.25000000  0.00000000  0.35161024
   0.50000000  0.25000000  0.35161024
   0.25000000  0.25000000  0.45053675
   0.50000000  0.00000000  0.45053675
   0.25022469  0.00004699  0.54986750
   0.50023190  0.25002736  0.55010272
   0.24980058  0.25007187  0.64783551
   0.49971472  0.00015805  0.64874521
   0.25000000  0.50000000  0.35161024
   0.50000000  0.75000000  0.35161024
   0.25000000  0.75000000  0.45053675
   0.50000000  0.50000000  0.45053675
   0.25021739  0.50004562  0.54987676
   0.50023113  0.75003719  0.55010077
   0.24980202  0.75010853  0.64783674
   0.49971084  0.50015928  0.64872597
   0.75000000  0.00000000  0.35161024
   0.00000000  0.25000000  0.35161024
   0.75000000  0.25000000  0.45053675
   0.00000000  0.00000000  0.45053675
   0.74980143  0.00002835  0.55009871
   0.99977758  0.25005193  0.54988015
   0.75030233  0.25013219  0.64877896
   0.00022363  0.00009140  0.64785305
   0.75000000  0.50000000  0.35161024
   0.00000000  0.75000000  0.35161024
   0.75000000  0.75000000  0.45053675
   0.00000000  0.50000000  0.45053675
   0.74981007  0.50002667  0.55011649
   0.99977926  0.75004706  0.54988113
   0.75030234  0.75018613  0.64877764
   0.00022658  0.50009052  0.64786623
   0.25000000  0.00000000  0.45053675
   0.50000000  0.25000000  0.45053675
   0.25000000  0.25000000  0.35161024
   0.50000000  0.00000000  0.35161024
   0.24947868  0.00011418  0.65000707
   0.49972351  0.25003770  0.65033173
   0.25006394  0.25003669  0.54955534
   0.50001962  0.00002869  0.54981088
   0.25000000  0.50000000  0.45053675
   0.50000000  0.75000000  0.45053675
   0.25000000  0.75000000  0.35161024
   0.50000000  0.50000000  0.35161024
   0.24949079  0.50011381  0.65000289
   0.49972368  0.75004913  0.65033023
   0.25006461  0.75004792  0.54955594
   0.50001034  0.50002670  0.54982030
   0.75000000  0.00000000  0.45053675
   0.00000000  0.25000000  0.45053675
   0.75000000  0.25000000  0.35161024
   0.00000000  0.00000000  0.35161024
   0.75028686  0.00004336  0.65036916
   0.00053694  0.25010805  0.65005766
   0.75002269  0.25001641  0.54983074
   0.99992823  0.00004812  0.54957056
   0.75000000  0.50000000  0.45053675
   0.00000000  0.75000000  0.45053675
   0.75000000  0.75000000  0.35161024
   0.00000000  0.50000000  0.35161024
   0.75027973  0.50004291  0.65034592
   0.00053717  0.75012376  0.65005815
   0.75002410  0.75003612  0.54983044
   0.99993547  0.50004608  0.54956395

 position of ions in cartesian coordinates  (Angst):
   2.11014557  0.00000000  7.50000000
   4.22029113  2.11014557  7.50000000
   2.11014557  2.11014557  9.61014557
   4.22029113  0.00000000  9.61014557
   2.11204208  0.00039663 11.72891398
   4.22224847  2.11037649 11.73393126
   2.10846238  2.11075222 13.81861434
   4.21788320  0.00133407 13.83801855
   2.11014557  4.22029113  7.50000000
   4.22029113  6.33043670  7.50000000
   2.11014557  6.33043670  9.61014557
   4.22029113  4.22029113  9.61014557
   2.11198050  4.22067622 11.72911134
   4.22224198  6.33075061 11.73388968
   2.10847448  6.33135273 13.81864063
   4.21785042  4.22163558 13.83760829
   6.33043670  0.00000000  7.50000000
   0.00000000  2.11014557  7.50000000
   6.33043670  2.11014557  9.61014557
   0.00000000  0.00000000  9.61014557
   6.32876061  0.00023932 11.73384577
   8.43870487  2.11058386 11.72918371
   6.33298857  2.11126132 13.83873864
   0.00188756  0.00077149 13.81898854
   6.33043670  4.22029113  7.50000000
   0.00000000  6.33043670  7.50000000
   6.33043670  6.33043670  9.61014557
   0.00000000  4.22029113  9.61014557
   6.32883359  4.22051624 11.73422494
   8.43871912  6.33083388 11.72920453
   6.33298865  6.33200777 13.83871046
   0.00191244  4.22105519 13.81926963
   2.11014557  0.00000000  9.61014557
   4.22029113  2.11014557  9.61014557
   2.11014557  2.11014557  7.50000000
   4.22029113  0.00000000  7.50000000
   2.10574530  0.00096377 13.86493472
   4.21795737  2.11046379 13.87185971
   2.11068524  2.11045526 11.72225546
   4.22045672  0.00024216 11.72770625
   2.11014557  4.22029113  9.61014557
   4.22029113  6.33043670  9.61014557
   2.11014557  6.33043670  7.50000000
   4.22029113  4.22029113  7.50000000
   2.10584755  4.22125175 13.86484559
   4.21795883  6.33085137 13.87182789
   2.11069092  6.33084118 11.72226815
   4.22037845  4.22051652 11.72790705
   6.33043670  0.00000000  9.61014557
   0.00000000  2.11014557  9.61014557
   6.33043670  2.11014557  7.50000000
   0.00000000  0.00000000  7.50000000
   6.33285799  0.00036598 13.87265825
   0.00453212  2.11105754 13.86601380
   6.33062819  2.11028411 11.72812985
   8.43997648  0.00040620 11.72258012
   6.33043670  4.22029113  9.61014557
   0.00000000  6.33043670  9.61014557
   6.33043670  6.33043670  7.50000000
   0.00000000  4.22029113  7.50000000
   6.33279779  4.22065336 13.87216245
   0.00453403  6.33148132 13.86602428
   6.33064015  6.33074158 11.72812348
   8.44003757  4.22068003 11.72243904



--------------------------------------------------------------------------------------------------------

--------------------------------------- Iteration      FINAL  ---------------------------------------


--------------------OUTCAR has been truncated-------------------------


--------------------OUTCAR has been truncated-------------------------


--------------------OUTCAR has been truncated-------------------------


--------------------OUTCAR has been truncated-------------------------


--------------------OUTCAR has been truncated-------------------------


--------------------OUTCAR has been truncated-------------------------


--------------------OUTCAR has been truncated-------------------------


--------------------OUTCAR has been truncated-------------------------


--------------------OUTCAR has been truncated-------------------------


--------------------OUTCAR has been truncated-------------------------


  DFT-D2 method for vdW energy calculation
  -------------------------------------------------------------------

  Parameters of vdW forcefield:
         C6(Jnm^6/mol)     R0(A)
   -----------------------------
   Mg       0.630          1.243
   O        0.700          1.342

  vdW correction parametrized for the method   h
      

  IVDW =   1
  VDW_RADIUS =    50.000 A
  VDW_S6 =     1.050
  VDW_SR =     1.000
  VDW_D =    20.000
  LVDW_EWALD = F

  Number of pair interactions contributing to vdW energy:  723328
  Edisp (eV):   -5.08137
    FORVDW:  cpu time      0.1939: real time      0.1942

 VOLUME and BASIS-vectors are now :
 -----------------------------------------------------------------------------
  energy-cutoff  :      600.00
  volume of cell :     1519.65
      direct lattice vectors                 reciprocal lattice vectors
     8.440582262  0.000000000  0.000000000     0.118475239  0.000000000  0.000000000
     0.000000000  8.440582262  0.000000000     0.000000000  0.118475239  0.000000000
     0.000000000  0.000000000 21.330436697     0.000000000  0.000000000  0.046881366

  length of vectors
     8.440582262  8.440582262 21.330436697     0.118475239  0.118475239  0.046881366


 FORCES acting on ions:
    Electron-Ion                     Ewald-Force                    Non-Local-Force
 -----------------------------------------------------------------------------------------------
   -.116E+00 0.382E-03 0.207E+04   0.118E+00 -.271E-03 -.206E+04   -.122E-02 -.793E-04 -.639E+01
   -.126E+00 -.546E-02 0.207E+04   0.128E+00 0.571E-02 -.206E+04   -.140E-02 -.165E-03 -.640E+01
   -.502E+00 -.160E-01 0.686E+03   0.519E+00 0.190E-01 -.686E+03   -.111E-01 -.177E-02 0.368E+00
   -.565E+00 0.247E-02 0.684E+03   0.582E+00 -.888E-03 -.685E+03   -.105E-01 -.977E-03 0.440E+00
   -.763E+00 0.289E-01 -.688E+03   0.826E+00 -.281E-01 0.688E+03   -.603E-01 -.942E-03 -.222E+00
   -.976E+00 -.549E-01 -.692E+03   0.103E+01 0.566E-01 0.692E+03   -.499E-01 -.504E-03 -.228E+00
   -.140E+01 -.180E+00 -.205E+04   0.126E+01 0.170E+00 0.205E+04   0.124E+00 0.111E-01 0.549E+01
   -.733E+00 0.279E+00 -.206E+04   0.666E+00 -.257E+00 0.205E+04   0.609E-01 -.255E-01 0.559E+01
   -.118E+00 -.211E-04 0.207E+04   0.120E+00 0.104E-03 -.206E+04   -.123E-02 -.580E-04 -.639E+01
   -.126E+00 0.563E-02 0.207E+04   0.128E+00 -.576E-02 -.206E+04   -.139E-02 0.798E-04 -.640E+01
   -.499E+00 0.210E-01 0.686E+03   0.516E+00 -.199E-01 -.686E+03   -.109E-01 -.650E-03 0.368E+00
   -.580E+00 0.296E-02 0.684E+03   0.597E+00 -.198E-02 -.685E+03   -.106E-01 -.586E-03 0.442E+00
   -.758E+00 0.206E-01 -.688E+03   0.819E+00 -.200E-01 0.689E+03   -.592E-01 -.725E-03 -.228E+00
   -.980E+00 0.563E-02 -.692E+03   0.104E+01 -.167E-02 0.692E+03   -.495E-01 -.297E-02 -.228E+00
   -.139E+01 -.368E-01 -.205E+04   0.125E+01 0.316E-01 0.205E+04   0.124E+00 0.426E-02 0.549E+01
   -.765E+00 0.277E+00 -.206E+04   0.697E+00 -.255E+00 0.205E+04   0.624E-01 -.256E-01 0.559E+01
   0.117E+00 0.182E-03 0.207E+04   -.119E+00 -.116E-03 -.206E+04   0.128E-02 -.474E-04 -.640E+01
   0.124E+00 -.337E-02 0.207E+04   -.126E+00 0.364E-02 -.206E+04   0.128E-02 -.182E-03 -.639E+01
   0.549E+00 -.270E-01 0.684E+03   -.564E+00 0.294E-01 -.685E+03   0.917E-02 -.148E-02 0.445E+00
   0.521E+00 0.520E-02 0.686E+03   -.539E+00 -.301E-02 -.686E+03   0.116E-01 -.131E-02 0.373E+00
   0.950E+00 -.296E-01 -.692E+03   -.100E+01 0.329E-01 0.692E+03   0.458E-01 -.175E-02 -.216E+00
   0.783E+00 -.839E-02 -.688E+03   -.851E+00 0.826E-02 0.689E+03   0.654E-01 -.308E-03 -.213E+00
   0.787E+00 0.179E+00 -.206E+04   -.719E+00 -.161E+00 0.205E+04   -.626E-01 -.205E-01 0.559E+01
   0.138E+01 -.110E+00 -.205E+04   -.123E+01 0.102E+00 0.205E+04   -.126E+00 0.789E-02 0.549E+01
   0.119E+00 -.181E-03 0.207E+04   -.121E+00 0.217E-03 -.206E+04   0.130E-02 -.257E-04 -.640E+01
   0.124E+00 0.380E-02 0.207E+04   -.126E+00 -.385E-02 -.206E+04   0.127E-02 0.283E-04 -.639E+01
   0.547E+00 0.357E-01 0.684E+03   -.561E+00 -.359E-01 -.685E+03   0.890E-02 0.102E-03 0.445E+00
   0.534E+00 0.563E-03 0.686E+03   -.552E+00 0.178E-02 -.686E+03   0.117E-01 -.139E-02 0.370E+00
   0.957E+00 -.383E-01 -.692E+03   -.101E+01 0.413E-01 0.692E+03   0.438E-01 -.141E-02 -.231E+00
   0.782E+00 0.496E-01 -.688E+03   -.851E+00 -.506E-01 0.689E+03   0.653E-01 0.486E-03 -.213E+00
   0.788E+00 0.386E+00 -.206E+04   -.720E+00 -.360E+00 0.205E+04   -.626E-01 -.309E-01 0.559E+01
   0.139E+01 -.115E+00 -.205E+04   -.125E+01 0.107E+00 0.205E+04   -.126E+00 0.811E-02 0.549E+01
   -.339E+00 0.592E-02 0.514E+03   0.328E+00 -.831E-02 -.514E+03   0.124E-01 0.281E-02 -.694E-01
   -.401E+00 -.180E-01 0.513E+03   0.386E+00 0.166E-01 -.513E+03   0.175E-01 0.170E-02 -.109E+00
   -.884E-01 -.311E-02 0.155E+04   0.902E-01 0.321E-02 -.156E+04   -.229E-02 -.130E-03 0.313E+01
   -.945E-01 -.226E-04 0.155E+04   0.965E-01 0.205E-04 -.156E+04   -.256E-02 0.516E-05 0.313E+01
   -.116E+01 0.770E-01 -.156E+04   0.115E+01 -.777E-01 0.157E+04   0.499E-01 -.168E-02 -.450E+01
   -.728E+00 -.272E+00 -.156E+04   0.749E+00 0.296E+00 0.157E+04   -.534E-03 -.175E-01 -.438E+01
   -.625E+00 -.445E-01 -.510E+03   0.610E+00 0.465E-01 0.510E+03   0.141E-01 -.147E-02 0.365E+00
   -.774E+00 0.291E-01 -.514E+03   0.765E+00 -.318E-01 0.514E+03   0.112E-01 0.310E-02 0.211E+00
   -.352E+00 0.397E-02 0.514E+03   0.341E+00 -.642E-02 -.514E+03   0.131E-01 0.290E-02 -.716E-01
   -.401E+00 0.235E-01 0.513E+03   0.386E+00 -.252E-01 -.513E+03   0.175E-01 0.188E-02 -.108E+00
   -.882E-01 0.288E-02 0.155E+04   0.900E-01 -.311E-02 -.156E+04   -.224E-02 0.296E-03 0.313E+01
   -.956E-01 -.706E-04 0.155E+04   0.977E-01 -.204E-05 -.156E+04   -.261E-02 0.941E-04 0.312E+01
   -.112E+01 0.750E-01 -.156E+04   0.112E+01 -.757E-01 0.157E+04   0.470E-01 -.167E-02 -.451E+01
   -.731E+00 -.192E+00 -.156E+04   0.752E+00 0.209E+00 0.157E+04   -.697E-03 -.106E-01 -.438E+01
   -.622E+00 0.786E-02 -.510E+03   0.608E+00 -.883E-02 0.510E+03   0.140E-01 0.109E-02 0.364E+00
   -.797E+00 0.240E-01 -.514E+03   0.789E+00 -.267E-01 0.514E+03   0.109E-01 0.316E-02 0.216E+00
   0.372E+00 0.200E-02 0.513E+03   -.360E+00 -.330E-02 -.513E+03   -.145E-01 0.154E-02 -.108E+00
   0.370E+00 -.215E-02 0.514E+03   -.359E+00 0.497E-04 -.514E+03   -.134E-01 0.243E-02 -.719E-01
   0.896E-01 -.409E-02 0.155E+04   -.916E-01 0.427E-02 -.156E+04   0.247E-02 -.218E-03 0.312E+01
   0.932E-01 0.118E-03 0.155E+04   -.952E-01 -.194E-03 -.156E+04   0.244E-02 0.990E-04 0.313E+01
   0.756E+00 -.234E+00 -.156E+04   -.773E+00 0.254E+00 0.157E+04   -.289E-02 -.143E-01 -.438E+01
   0.110E+01 0.239E-01 -.156E+04   -.109E+01 -.238E-01 0.157E+04   -.477E-01 -.174E-02 -.451E+01
   0.768E+00 -.320E-02 -.514E+03   -.763E+00 0.107E-02 0.514E+03   -.914E-02 0.297E-02 0.205E+00
   0.630E+00 -.138E-01 -.510E+03   -.610E+00 0.153E-01 0.510E+03   -.184E-01 -.157E-02 0.362E+00
   0.386E+00 0.380E-03 0.513E+03   -.374E+00 -.164E-02 -.513E+03   -.151E-01 0.151E-02 -.111E+00
   0.370E+00 0.123E-01 0.514E+03   -.359E+00 -.156E-01 -.514E+03   -.132E-01 0.395E-02 -.721E-01
   0.893E-01 0.413E-02 0.155E+04   -.913E-01 -.436E-02 -.156E+04   0.243E-02 0.298E-03 0.313E+01
   0.943E-01 -.397E-03 0.155E+04   -.963E-01 0.327E-03 -.156E+04   0.248E-02 0.933E-04 0.313E+01
   0.738E+00 -.238E+00 -.156E+04   -.757E+00 0.258E+00 0.157E+04   0.231E-04 -.143E-01 -.438E+01
   0.110E+01 0.134E+00 -.156E+04   -.109E+01 -.135E+00 0.157E+04   -.478E-01 -.162E-02 -.451E+01
   0.768E+00 0.765E-01 -.514E+03   -.763E+00 -.830E-01 0.514E+03   -.928E-02 0.638E-02 0.206E+00
   0.644E+00 -.224E-01 -.510E+03   -.625E+00 0.241E-01 0.510E+03   -.181E-01 -.157E-02 0.362E+00
 -----------------------------------------------------------------------------------------------
   0.109E-01 0.133E+00 0.163E+02   0.471E-13 0.978E-13 0.318E-11   -.968E-02 -.120E+00 -.143E+02


 POSITION                                       TOTAL-FORCE (eV/Angst)
 -----------------------------------------------------------------------------------
      2.11015      0.00000      7.50000         0.000439     -0.000010      0.465017
      4.22029      2.11015      7.50000         0.000500      0.000026      0.466378
      2.11015      2.11015      9.61015         0.004958      0.000901      0.027571
      4.22029      0.00000      9.61015         0.004682      0.000442      0.035245
      2.11204      0.00040     11.72891        -0.002822     -0.000235     -0.003940
      4.22225      2.11038     11.73393         0.001740      0.000989     -0.012360
      2.10846      2.11075     13.81861        -0.005634      0.001687     -0.034680
      4.21788      0.00133     13.83802        -0.000162     -0.005895     -0.155017
      2.11015      4.22029      7.50000         0.000445     -0.000015      0.465135
      4.22029      6.33044      7.50000         0.000504     -0.000065      0.466342
      2.11015      6.33044      9.61015         0.004863      0.000323      0.027573
      4.22029      4.22029      9.61015         0.004802      0.000278      0.036001
      2.11198      4.22068     11.72911        -0.002614     -0.000130     -0.005352
      4.22224      6.33075     11.73389         0.001778      0.000621     -0.011996
      2.10847      6.33135     13.81864        -0.005699     -0.000522     -0.034918
      4.21785      4.22164     13.83761         0.000206     -0.005959     -0.151938
      6.33044      0.00000      7.50000        -0.000478     -0.000018      0.466328
      0.00000      2.11015      7.50000        -0.000464      0.000036      0.465110
      6.33044      2.11015      9.61015        -0.004172      0.000703      0.035909
      0.00000      0.00000      9.61015        -0.005025      0.000676      0.027746
      6.32876      0.00024     11.73385        -0.001893      0.001247     -0.010141
      8.43870      2.11058     11.72918         0.002589     -0.000472     -0.004008
      6.33299      2.11126     13.83874        -0.000103     -0.004360     -0.157253
      0.00189      0.00077     13.81899         0.005311      0.000609     -0.034732
      6.33044      4.22029      7.50000        -0.000479     -0.000025      0.466493
      0.00000      6.33044      7.50000        -0.000468     -0.000055      0.465114
      6.33044      6.33044      9.61015        -0.004050     -0.000145      0.035931
      0.00000      4.22029      9.61015        -0.005141      0.000727      0.027865
      6.32883      4.22052     11.73422        -0.002228      0.001332     -0.012981
      8.43872      6.33083     11.72920         0.002531     -0.000465     -0.004178
      6.33299      6.33201     13.83871        -0.000103     -0.007685     -0.157140
      0.00191      4.22106     13.81927         0.005105      0.000631     -0.037208
      2.11015      0.00000      9.61015         0.003709      0.000782      0.041605
      4.22029      2.11015      9.61015         0.005681      0.000517      0.053077
      2.11015      2.11015      7.50000        -0.000779     -0.000075     -0.434981
      4.22029      0.00000      7.50000        -0.000866     -0.000029     -0.435780
      2.10575      0.00096     13.86493         0.050688     -0.002776     -0.030384
      4.21796      2.11046     13.87186         0.021248      0.003892     -0.008680
      2.11069      2.11046     11.72226         0.001004      0.000339      0.016783
      4.22046      0.00024     11.72771         0.004147      0.000708      0.014973
      2.11015      4.22029      9.61015         0.004007      0.000822      0.041832
      4.22029      6.33044      9.61015         0.005673      0.000453      0.053090
      2.11015      6.33044      7.50000        -0.000759      0.000072     -0.434976
      4.22029      4.22029      7.50000        -0.000881      0.000002     -0.435904
      2.10585      4.22125     13.86485         0.048867     -0.002757     -0.029752
      4.21796      6.33085     13.87183         0.021267      0.004736     -0.008502
      2.11069      6.33084     11.72227         0.000938      0.000218      0.016629
      4.22038      4.22052     11.72791         0.004788      0.000876      0.012248
      6.33044      0.00000      9.61015        -0.004692      0.000419      0.052870
      0.00000      2.11015      9.61015        -0.004108      0.000625      0.042069
      6.33044      2.11015      7.50000         0.000829     -0.000104     -0.435866
      0.00000      0.00000      7.50000         0.000822      0.000004     -0.434936
      6.33286      0.00037     13.87266        -0.021932      0.004296     -0.011841
      0.00453      2.11106     13.86601        -0.049226     -0.002055     -0.034840
      6.33063      2.11028     11.72813        -0.005131      0.001236      0.012839
      8.43998      0.00041     11.72258        -0.000689     -0.000318      0.015054
      6.33044      4.22029      9.61015        -0.005005      0.000419      0.053650
      0.00000      6.33044      9.61015        -0.004063      0.001186      0.042109
      6.33044      6.33044      7.50000         0.000815      0.000071     -0.435855
      0.00000      4.22029      7.50000         0.000833      0.000004     -0.435051
      6.33280      4.22065     13.87216        -0.020619      0.004317     -0.008745
      0.00453      6.33148     13.86602        -0.049221     -0.003628     -0.034929
      6.33064      6.33074     11.72812        -0.005238      0.000720      0.012852
      8.44004      4.22068     11.72244        -0.001023     -0.000147      0.017426
 -----------------------------------------------------------------------------------
    total drift:                                0.000243      0.002079      0.006590


--------------------------------------------------------------------------------------------------------



  FREE ENERGIE OF THE ION-ELECTRON SYSTEM (eV)
  ---------------------------------------------------
  free  energy   TOTEN  =      -438.45223641 eV

  energy  without entropy=     -438.45223641  energy(sigma->0) =     -438.45223641



--------------------------------------------------------------------------------------------------------


    POTLOK:  cpu time      0.7313: real time      0.7317


--------------------------------------------------------------------------------------------------------


     LOOP+:  cpu time   4350.0084: real time   4353.0633
    4ORBIT:  cpu time      0.0000: real time      0.0000

 total amount of memory used by VASP MPI-rank0   180099. kBytes
=======================================================================

   base      :      30000. kBytes
   nonl-proj :      11878. kBytes
   fftplans  :       7827. kBytes
   grid      :       7379. kBytes
   one-center:         64. kBytes
   HF        :         67. kBytes
   nonlr-proj:       6665. kBytes
   wavefun   :       3759. kBytes
   fock_wrk  :     112460. kBytes

  
  
 General timing and accounting informations for this job:
 ========================================================
  
                  Total CPU time used (sec):     4421.538
                            User time (sec):     4410.277
                          System time (sec):       11.261
                         Elapsed time (sec):     4453.787
  
                   Maximum memory used (kb):      501464.
                   Average memory used (kb):          N/A
  
                          Minor page faults:       306517
                          Major page faults:         1348
                 Voluntary context switches:        23532
