 **********************************************************************
                          MRCC program system
 **********************************************************************
 
                              Written by
     Mihaly Kallay, Peter R. Nagy, David Mester, Laszlo Gyevi-Nagy,
        Jozsef Csoka, P. Bernat Szabo, Zoltan Rolik, Gyula Samu,
     Jozsef Csontos, Bence Hegely, Adam Ganyecz, Istvan Ladjanszki,
       Lorant Szegedy, Bence Ladoczki, Klara Petrov, Mate Farkas,
                    Pal D. Mezei, and Reka A. Horvath
 
        Department of Physical Chemistry and Materials Science
            Budapest University of Technology and Economics
                  Budapest P.O.Box 91, H-1521 Hungary
 
                              www.mrcc.hu
 
                      Release date: March 18, 2022

 ************************ 2023-02-23 02:55:39 *************************
 Executing minp...

 Reading input from MINP...
 
 Input file:
 
calc=LNO-CCSD(T)
scftype=rhf
verbosity=3
mem=220GB
symm=off
unit=angs
scfiguess=small
scfmaxit=1000
scfalg=locfit1


lcorthr=tight
bpedo=0.99999
ccmaxit=400
usedisk=0
ccsdalg=dfdirect
ccsdthreads=4
ccsdmkl=thr
ptthreads=4

charge=0
core=1

basis=special
aug-cc-pVDZ
aug-cc-pVDZ
aug-cc-pVDZ
aug-cc-pVDZ
bse_CVDZ
aug-cc-pVDZ
aug-cc-pVDZ
aug-cc-pVDZ
aug-cc-pVDZ
aug-cc-pVDZ
bse_CVDZ
bse_CVDZ
bse_CVDZ
bse_CVDZ
aug-cc-pVDZ
aug-cc-pVDZ
aug-cc-pVDZ
aug-cc-pVDZ
bse_CVDZ
bse_CVDZ
bse_CVDZ
bse_CVDZ
aug-cc-pVDZ
aug-cc-pVDZ
aug-cc-pVDZ
aug-cc-pVDZ
aug-cc-pVDZ
aug-cc-pVDZ
aug-cc-pVDZ
aug-cc-pVDZ
aug-cc-pVDZ
aug-cc-pVDZ
aug-cc-pVDZ
aug-cc-pVDZ
aug-cc-pVDZ
aug-cc-pVDZ
aug-cc-pVDZ
aug-cc-pVDZ

basis_sm=special
def2-SVP
def2-SVP
def2-SVP
def2-SVP
def2-SVP
def2-SVP
def2-SVP
def2-SVP
def2-SVP
def2-SVP
def2-SVP
def2-SVP
def2-SVP
def2-SVP
def2-SVP
def2-SVP
def2-SVP
def2-SVP
def2-SVP
def2-SVP
def2-SVP
def2-SVP
def2-SVP
def2-SVP
def2-SVP
def2-SVP
def2-SVP
def2-SVP
def2-SVP
def2-SVP
def2-SVP
def2-SVP
def2-SVP
def2-SVP
def2-SVP
def2-SVP
def2-SVP
def2-SVP

dfbasis_scf=special
def2-QZVPP-RI-JK
def2-QZVPP-RI-JK
def2-QZVPP-RI-JK
def2-QZVPP-RI-JK
def2-QZVPP-RI-JK
def2-QZVPP-RI-JK
def2-QZVPP-RI-JK
def2-QZVPP-RI-JK
def2-QZVPP-RI-JK
def2-QZVPP-RI-JK
def2-QZVPP-RI-JK
def2-QZVPP-RI-JK
def2-QZVPP-RI-JK
def2-QZVPP-RI-JK
def2-QZVPP-RI-JK
def2-QZVPP-RI-JK
def2-QZVPP-RI-JK
def2-QZVPP-RI-JK
def2-QZVPP-RI-JK
def2-QZVPP-RI-JK
def2-QZVPP-RI-JK
def2-QZVPP-RI-JK
def2-QZVPP-RI-JK
def2-QZVPP-RI-JK
def2-QZVPP-RI-JK
def2-QZVPP-RI-JK
def2-QZVPP-RI-JK
def2-QZVPP-RI-JK
def2-QZVPP-RI-JK
def2-QZVPP-RI-JK
def2-QZVPP-RI-JK
def2-QZVPP-RI-JK
def2-QZVPP-RI-JK
def2-QZVPP-RI-JK
def2-QZVPP-RI-JK
def2-QZVPP-RI-JK
def2-QZVPP-RI-JK
def2-QZVPP-RI-JK

dfbasis_cor=special
aug-cc-pVDZ-RI
aug-cc-pVDZ-RI
aug-cc-pVDZ-RI
aug-cc-pVDZ-RI
bse_CVDZ_mp2fit
aug-cc-pVDZ-RI
aug-cc-pVDZ-RI
aug-cc-pVDZ-RI
aug-cc-pVDZ-RI
aug-cc-pVDZ-RI
bse_CVDZ_mp2fit
bse_CVDZ_mp2fit
bse_CVDZ_mp2fit
bse_CVDZ_mp2fit
aug-cc-pVDZ-RI
aug-cc-pVDZ-RI
aug-cc-pVDZ-RI
aug-cc-pVDZ-RI
bse_CVDZ_mp2fit
bse_CVDZ_mp2fit
bse_CVDZ_mp2fit
bse_CVDZ_mp2fit
aug-cc-pVDZ-RI
aug-cc-pVDZ-RI
aug-cc-pVDZ-RI
aug-cc-pVDZ-RI
aug-cc-pVDZ-RI
aug-cc-pVDZ-RI
aug-cc-pVDZ-RI
aug-cc-pVDZ-RI
aug-cc-pVDZ-RI
aug-cc-pVDZ-RI
aug-cc-pVDZ-RI
aug-cc-pVDZ-RI
aug-cc-pVDZ-RI
aug-cc-pVDZ-RI
aug-cc-pVDZ-RI
aug-cc-pVDZ-RI

ecp=special
none
none
none
none
none
none
none
none
none
none
none
none
none
none
none
none
none
none
none
none
none
none
none
none
none
none
none
none
none
none
none
none
none
none
none
none
none
none

unit=angs
geom=xyz
38
N1 H3 Mg9 O25 ECP69
N     0.00000172217    0.14246194211    2.24974477932
H    -0.00000044480    1.15159353534    2.41059950142
H    -0.82663383591   -0.24686120021    2.70342152179
H     0.82663440365   -0.24685899594    2.70342511145
Mg    0.00000000000    0.00000000000    0.00000000000
O    -0.00000026524   -2.12128837888   -0.08552188977
O    -2.13242008140    0.01088097006   -0.08101545754
O     2.13241990996    0.01088082855   -0.08101541346
O    -0.00000031576    2.14636681921   -0.07343007474
O    -0.00000023981    0.01184325360   -2.22236962301
Mg    2.11130296039   -2.10101758777   -0.14453438886
Mg   -2.11130347826   -2.10101756125   -0.14453458198
Mg   -2.11294673269    2.12204137757   -0.14684541586
Mg    2.11294622812    2.12204125666   -0.14684553363
O     2.11177828906   -2.10043141434   -2.24130327715
O    -2.11177884352   -2.10043131781   -2.24130339534
O    -2.11081129618    2.12255550536   -2.24063528483
O     2.11081066679    2.12255548217   -2.24063517827
Mg   -0.00000032798   -4.20705290804   -0.14396791410
Mg   -4.22049366359    0.01055426339   -0.14375900021
Mg    4.22049339222    0.01055426339   -0.14375900021
Mg   -0.00000032798    4.23393414778   -0.14396791410
O     2.11528002664   -4.20979459448   -0.08093689710
O    -2.11528059745   -4.20979452667   -0.08093727110
O     4.22049326016   -2.10412878869   -0.08035285123
O    -4.22049379566   -2.10412878869   -0.08035285123
O    -4.22049382633    2.12584746115   -0.08164206170
O     4.22049322948    2.12584746115   -0.08164206170
O    -2.11528059745    4.23119252915   -0.08093727110
O     2.11528002664    4.23119246134   -0.08093689710
O    -0.00000028222   -4.21008949937   -2.24511793206
O    -4.22049376459    0.01131023338   -2.24521017268
O     4.22049329122    0.01131023338   -2.24521017268
O    -0.00000028222    4.23089755645   -2.24511793206
O    -0.00000031576   -6.29462023661   -0.07343007474
O    -6.30856714586    0.01088082855   -0.08101541346
O     6.30856697441    0.01088097006   -0.08101545754
O    -0.00000026524    6.31969867694   -0.08552188977

ghost=serialno
5-38

 
 
 Checking keyword combinations...
 
 Keywords:
 
 active=none
--------------------Output has been truncated-------------------------


--------------------Output has been truncated-------------------------


--------------------Output has been truncated-------------------------


--------------------Output has been truncated-------------------------


--------------------Output has been truncated-------------------------


--------------------Output has been truncated-------------------------


--------------------Output has been truncated-------------------------


--------------------Output has been truncated-------------------------


--------------------Output has been truncated-------------------------


--------------------Output has been truncated-------------------------


 
 Final local CC results:
 
 Minimum number of correlated electrons:         8       (100.0%)
 Maximum number of correlated electrons:         8       (100.0%)
 Average number of correlated electrons:         8.0     (100.0%)
 Minimum number of correlated orbitals:         46       (  5.3%)
 Maximum number of correlated orbitals:         50       (  5.8%)
 Average number of correlated orbitals:         47.0     (  5.4%)
 
 CPU time for integral calculations [min]:                  4.783
 Wall time for integral calculations [min]:                 0.146
 
 CPU time for SCF calculation [min]:                       16.871
 Wall time for SCF calculation [min]:                       0.496
 
 CPU time for orbital localization [min]:                   0.147
 Wall time for orbital localization [min]:                  0.023
 
 CPU time for integral transformations [min]:              29.123
 Wall time for integral transformations [min]:              1.010
 
 Reference energy [au]:                                   -56.205752336545
 
 LMP2 correlation energy [au]:                             -0.201452470261
 Total LMP2 energy [au]:                                  -56.407204806806
 
 Total MP2 correction for dropped NAFs [au]:               -0.000025126876
 Total MP2 correction [au]:                                -0.000093374122
 
 CPU time for CCSD calculations [min]:                      0.439
 Total CPU time for CCSD [min]:                            51.364
 Wall time for CCSD calculations [min]:                     0.013
 Total wall time for CCSD [min]:                            1.689
 
 CCSD correlation energy [au]:                             -0.216411923173
 Total CCSD energy [au]:                                  -56.422164259718
 CCSD correlation energy + 0.5 MP2 corrections [au]:       -0.216458610234
 Total LNO-CCSD energy with MP2 corrections [au]:         -56.422210946779
 
 CPU time for (T) corrections [min]:                        0.127
 Total CPU time for CCSD(T) [min]:                         51.490
 Wall time for (T) corrections [min]:                       0.004
 Total wall time for CCSD(T) [min]:                         1.693
 
 Total (T) correlation energy contribution [au]:           -0.005688319520
 Total (T) correlation energy+0.5 MP2 correction [au]:     -0.005735006581
 CCSD(T) correlation energy [au]:                          -0.222100242693
 Total CCSD(T) energy [au]:                               -56.427852579238
 CCSD(T) correlation energy + MP2 corrections [au]:        -0.222193616815
 Total LNO-CCSD(T) energy with MP2 corrections [au]:      -56.427945953360
 
 ======================================================================
 ======================================================================
 
 ************************ 2023-02-23 02:57:54 *************************
                      Normal termination of mrcc.
 **********************************************************************
