 **********************************************************************
                          MRCC program system
 **********************************************************************
 
                              Written by
     Mihaly Kallay, Peter R. Nagy, David Mester, Laszlo Gyevi-Nagy,
        Jozsef Csoka, P. Bernat Szabo, Zoltan Rolik, Gyula Samu,
     Jozsef Csontos, Bence Hegely, Adam Ganyecz, Istvan Ladjanszki,
       Lorant Szegedy, Bence Ladoczki, Klara Petrov, Mate Farkas,
                    Pal D. Mezei, and Reka A. Horvath
 
        Department of Physical Chemistry and Materials Science
            Budapest University of Technology and Economics
                  Budapest P.O.Box 91, H-1521 Hungary
 
                              www.mrcc.hu
 
                      Release date: March 18, 2022

 ************************ 2023-02-23 02:57:05 *************************
 Executing minp...

 Reading input from MINP...
 
 Input file:
 
calc=LNO-CCSD(T)
scftype=rhf
verbosity=3
mem=220GB
symm=off
unit=angs
scfiguess=small
scfmaxit=1000
scfalg=locfit1


lcorthr=tight
bpedo=0.99999
ccmaxit=400
usedisk=0
ccsdalg=dfdirect
ccsdthreads=4
ccsdmkl=thr
ptthreads=4

charge=0
core=1

basis=special
aug-cc-pVTZ
aug-cc-pVTZ
aug-cc-pVTZ
aug-cc-pVTZ
bse_CVTZ
aug-cc-pVTZ
aug-cc-pVTZ
aug-cc-pVTZ
aug-cc-pVTZ
aug-cc-pVTZ
bse_CVTZ
bse_CVTZ
bse_CVTZ
bse_CVTZ
aug-cc-pVTZ
aug-cc-pVTZ
aug-cc-pVTZ
aug-cc-pVTZ
bse_CVTZ
bse_CVTZ
bse_CVTZ
bse_CVTZ
aug-cc-pVTZ
aug-cc-pVTZ
aug-cc-pVTZ
aug-cc-pVTZ
aug-cc-pVTZ
aug-cc-pVTZ
aug-cc-pVTZ
aug-cc-pVTZ
aug-cc-pVTZ
aug-cc-pVTZ
aug-cc-pVTZ
aug-cc-pVTZ
aug-cc-pVTZ
aug-cc-pVTZ
aug-cc-pVTZ
aug-cc-pVTZ

basis_sm=special
def2-SVP
def2-SVP
def2-SVP
def2-SVP
def2-SVP
def2-SVP
def2-SVP
def2-SVP
def2-SVP
def2-SVP
def2-SVP
def2-SVP
def2-SVP
def2-SVP
def2-SVP
def2-SVP
def2-SVP
def2-SVP
def2-SVP
def2-SVP
def2-SVP
def2-SVP
def2-SVP
def2-SVP
def2-SVP
def2-SVP
def2-SVP
def2-SVP
def2-SVP
def2-SVP
def2-SVP
def2-SVP
def2-SVP
def2-SVP
def2-SVP
def2-SVP
def2-SVP
def2-SVP

dfbasis_scf=special
def2-QZVPP-RI-JK
def2-QZVPP-RI-JK
def2-QZVPP-RI-JK
def2-QZVPP-RI-JK
def2-QZVPP-RI-JK
def2-QZVPP-RI-JK
def2-QZVPP-RI-JK
def2-QZVPP-RI-JK
def2-QZVPP-RI-JK
def2-QZVPP-RI-JK
def2-QZVPP-RI-JK
def2-QZVPP-RI-JK
def2-QZVPP-RI-JK
def2-QZVPP-RI-JK
def2-QZVPP-RI-JK
def2-QZVPP-RI-JK
def2-QZVPP-RI-JK
def2-QZVPP-RI-JK
def2-QZVPP-RI-JK
def2-QZVPP-RI-JK
def2-QZVPP-RI-JK
def2-QZVPP-RI-JK
def2-QZVPP-RI-JK
def2-QZVPP-RI-JK
def2-QZVPP-RI-JK
def2-QZVPP-RI-JK
def2-QZVPP-RI-JK
def2-QZVPP-RI-JK
def2-QZVPP-RI-JK
def2-QZVPP-RI-JK
def2-QZVPP-RI-JK
def2-QZVPP-RI-JK
def2-QZVPP-RI-JK
def2-QZVPP-RI-JK
def2-QZVPP-RI-JK
def2-QZVPP-RI-JK
def2-QZVPP-RI-JK
def2-QZVPP-RI-JK

dfbasis_cor=special
aug-cc-pVTZ-RI
aug-cc-pVTZ-RI
aug-cc-pVTZ-RI
aug-cc-pVTZ-RI
bse_CVTZ_mp2fit
aug-cc-pVTZ-RI
aug-cc-pVTZ-RI
aug-cc-pVTZ-RI
aug-cc-pVTZ-RI
aug-cc-pVTZ-RI
bse_CVTZ_mp2fit
bse_CVTZ_mp2fit
bse_CVTZ_mp2fit
bse_CVTZ_mp2fit
aug-cc-pVTZ-RI
aug-cc-pVTZ-RI
aug-cc-pVTZ-RI
aug-cc-pVTZ-RI
bse_CVTZ_mp2fit
bse_CVTZ_mp2fit
bse_CVTZ_mp2fit
bse_CVTZ_mp2fit
aug-cc-pVTZ-RI
aug-cc-pVTZ-RI
aug-cc-pVTZ-RI
aug-cc-pVTZ-RI
aug-cc-pVTZ-RI
aug-cc-pVTZ-RI
aug-cc-pVTZ-RI
aug-cc-pVTZ-RI
aug-cc-pVTZ-RI
aug-cc-pVTZ-RI
aug-cc-pVTZ-RI
aug-cc-pVTZ-RI
aug-cc-pVTZ-RI
aug-cc-pVTZ-RI
aug-cc-pVTZ-RI
aug-cc-pVTZ-RI

ecp=special
none
none
none
none
none
none
none
none
none
none
none
none
none
none
none
none
none
none
none
none
none
none
none
none
none
none
none
none
none
none
none
none
none
none
none
none
none
none

unit=angs
geom=xyz
38
N1 H3 Mg9 O25 ECP69
N     0.00000172217    0.14246194211    2.24974477932
H    -0.00000044480    1.15159353534    2.41059950142
H    -0.82663383591   -0.24686120021    2.70342152179
H     0.82663440365   -0.24685899594    2.70342511145
Mg    0.00000000000    0.00000000000    0.00000000000
O    -0.00000026524   -2.12128837888   -0.08552188977
O    -2.13242008140    0.01088097006   -0.08101545754
O     2.13241990996    0.01088082855   -0.08101541346
O    -0.00000031576    2.14636681921   -0.07343007474
O    -0.00000023981    0.01184325360   -2.22236962301
Mg    2.11130296039   -2.10101758777   -0.14453438886
Mg   -2.11130347826   -2.10101756125   -0.14453458198
Mg   -2.11294673269    2.12204137757   -0.14684541586
Mg    2.11294622812    2.12204125666   -0.14684553363
O     2.11177828906   -2.10043141434   -2.24130327715
O    -2.11177884352   -2.10043131781   -2.24130339534
O    -2.11081129618    2.12255550536   -2.24063528483
O     2.11081066679    2.12255548217   -2.24063517827
Mg   -0.00000032798   -4.20705290804   -0.14396791410
Mg   -4.22049366359    0.01055426339   -0.14375900021
Mg    4.22049339222    0.01055426339   -0.14375900021
Mg   -0.00000032798    4.23393414778   -0.14396791410
O     2.11528002664   -4.20979459448   -0.08093689710
O    -2.11528059745   -4.20979452667   -0.08093727110
O     4.22049326016   -2.10412878869   -0.08035285123
O    -4.22049379566   -2.10412878869   -0.08035285123
O    -4.22049382633    2.12584746115   -0.08164206170
O     4.22049322948    2.12584746115   -0.08164206170
O    -2.11528059745    4.23119252915   -0.08093727110
O     2.11528002664    4.23119246134   -0.08093689710
O    -0.00000028222   -4.21008949937   -2.24511793206
O    -4.22049376459    0.01131023338   -2.24521017268
O     4.22049329122    0.01131023338   -2.24521017268
O    -0.00000028222    4.23089755645   -2.24511793206
O    -0.00000031576   -6.29462023661   -0.07343007474
O    -6.30856714586    0.01088082855   -0.08101541346
O     6.30856697441    0.01088097006   -0.08101545754
O    -0.00000026524    6.31969867694   -0.08552188977

ghost=serialno
5-38

 
 
 Checking keyword combinations...
 
 Keywords:
 
 active=none
--------------------Output has been truncated-------------------------


--------------------Output has been truncated-------------------------


--------------------Output has been truncated-------------------------


--------------------Output has been truncated-------------------------


--------------------Output has been truncated-------------------------


--------------------Output has been truncated-------------------------


--------------------Output has been truncated-------------------------


--------------------Output has been truncated-------------------------


--------------------Output has been truncated-------------------------


--------------------Output has been truncated-------------------------


 
 Final local CC results:
 
 Minimum number of correlated electrons:         8       (100.0%)
 Maximum number of correlated electrons:         8       (100.0%)
 Average number of correlated electrons:         8.0     (100.0%)
 Minimum number of correlated orbitals:         80       (  4.5%)
 Maximum number of correlated orbitals:         84       (  4.7%)
 Average number of correlated orbitals:         81.0     (  4.5%)
 
 CPU time for integral calculations [min]:                 21.346
 Wall time for integral calculations [min]:                 0.608
 
 CPU time for SCF calculation [min]:                       47.762
 Wall time for SCF calculation [min]:                       1.419
 
 CPU time for orbital localization [min]:                   0.270
 Wall time for orbital localization [min]:                  0.089
 
 CPU time for integral transformations [min]:             100.644
 Wall time for integral transformations [min]:              3.184
 
 Reference energy [au]:                                   -56.219641034213
 
 LMP2 correlation energy [au]:                             -0.241309950280
 Total LMP2 energy [au]:                                  -56.460950984493
 
 Total MP2 correction for dropped NAFs [au]:               -0.000004415108
 Total MP2 correction [au]:                                -0.000216244565
 
 CPU time for CCSD calculations [min]:                      1.076
 Total CPU time for CCSD [min]:                           171.097
 Wall time for CCSD calculations [min]:                     0.033
 Total wall time for CCSD [min]:                            5.332
 
 CCSD correlation energy [au]:                             -0.252911754316
 Total CCSD energy [au]:                                  -56.472552788529
 CCSD correlation energy + 0.5 MP2 corrections [au]:       -0.253019876599
 Total LNO-CCSD energy with MP2 corrections [au]:         -56.472660910811
 
 CPU time for (T) corrections [min]:                        0.674
 Total CPU time for CCSD(T) [min]:                        171.771
 Wall time for (T) corrections [min]:                       0.020
 Total wall time for CCSD(T) [min]:                         5.353
 
 Total (T) correlation energy contribution [au]:           -0.008363951964
 Total (T) correlation energy+0.5 MP2 correction [au]:     -0.008472074247
 CCSD(T) correlation energy [au]:                          -0.261275706281
 Total CCSD(T) energy [au]:                               -56.480916740493
 CCSD(T) correlation energy + MP2 corrections [au]:        -0.261491950846
 Total LNO-CCSD(T) energy with MP2 corrections [au]:      -56.481132985058
 
 ======================================================================
 ======================================================================
 
 ************************ 2023-02-23 03:03:01 *************************
                      Normal termination of mrcc.
 **********************************************************************
