 vasp.6.4.2 20Jul23 (build Feb 22 2024 13:53:45) complex                         
 executed on              LinuxNV date 2024.08.27  20:44:39
 running    4 mpi-ranks, with    1 threads/rank, on    1 nodes
 distrk:  each k-point on    4 cores,    1 groups
 distr:  one band on NCORE=   1 cores,    4 groups
 OpenACC runtime initialized ...    4 GPUs detected


--------------------------------------------------------------------------------------------------------


 INCAR:
   SYSTEM = Oxide-Surface
   ISMEAR = 0
   SIGMA = 0.05
   EDIFF = 1E-5
   ALGO = Normal
   IBRION = -1
   NSW = 0
   ISYM = 0
   DIPOL = 0.5 0.5 0.5
   IDIPOL = 3
   LDIPOL = .TRUE.
   ISTART = 1
   METAGGA = SCAN
   LUSE_VDW = .TRUE.
   BPARAM = 15.7
   CPARAM = 0.0093
   ENCUT = 1000
   PREC = Normal
   PRECFOCK = Normal
   LASPH = .TRUE.
   LREAL = Auto
   ISPIN = 1
   NELM = 200
   NELMIN = 8
   NCORE = 1
   KPAR = 1
   LWAVE = .FALSE.
   LCHARG = .FALSE.

 POTCAR:    PAW_PBE Mg_sv 12Apr2007               
 POTCAR:    PAW_PBE O_h 06Feb2004                 
 -----------------------------------------------------------------------------
|                                                                             |
|               ----> ADVICE to this user running VASP <----                  |
|                                                                             |
|     You have switched on vdW-DFT.                                           |
|     This routine was written and supplied by Jiri Klimes. We recommend      |
|     that you carefully read and cite the following publications:            |
|       J. Klimes, D.R. Bowler, A. Michelides                                 |
|          J. Phys.: Cond Matt. 22 022201 (2010)                              |
|       J. Klimes, D.R. Bowler, A. Michelides                                 |
|          Phys. Rev. B. 83, 195131 (2011)                                    |
|     and references therein.                                                 |
|                                                                             |
 -----------------------------------------------------------------------------

 POTCAR:    PAW_PBE Mg_sv 12Apr2007               
   SHA256 =  c031e1d7f73808198b463395d641520b61dff8900336e561361552d85f4fc16c Mg_sv/POTCAR          
   COPYR  = (c) Copyright 12Apr2007 Georg Kresse                                                    
   COPYR  = This file is part of the software VASP. Any use, copying, and all other rights are regul
   COPYR  = If you do not have a valid VASP license, you may not use, copy or distribute this file. 
   VRHFIN =Mg: p6s2                                                                                 
   LEXCH  = PE                                                                                      
   EATOM  =  1728.4457 eV,  127.0372 Ry                                                             
                                                                                                    
   TITEL  = PAW_PBE Mg_sv 12Apr2007                                                                 
   LULTRA =        F    use ultrasoft PP ?                                                          
   IUNSCR =        0    unscreen: 0-lin 1-nonlin 2-no                                               
   RPACOR =    0.000    partial core radius                                                         
   POMASS =   24.305; ZVAL   =   10.000    mass and valenz                                          
   RCORE  =    1.700    outmost cutoff radius                                                       
   RWIGS  =    1.800; RWIGS  =    0.953    wigner-seitz radius (au A)                               
   ENMAX  =  495.223; ENMIN  =  371.417 eV                                                          
   RCLOC  =    1.506    cutoff for local pot                                                        
   LCOR   =        T    correct aug charges                                                         
   LPAW   =        T    paw PP                                                                      
   EAUG   =  980.156                                                                                
   RMAX   =    1.743    core radius for proj-oper                                                   
   RAUG   =    1.300    factor for augmentation sphere                                              
   RDEP   =    1.781    radius for radial grids                                                     
   RDEPT  =    1.300    core radius for aug-charge                                                  
                                                                                                    
   Atomic configuration                                                                             
    5 entries                                                                                       
     n  l   j            E        occ.                                                              
     1  0  0.50     -1259.6230   2.0000                                                             
     2  0  0.50       -79.8442   2.0000                                                             
     3  0  0.50        -4.7055   2.0000                                                             
     2  1  1.50       -46.6121   6.0000                                                             
     3  2  1.50        -1.3606   0.0000                                                             
   Description                                                                                      
     l       E           TYP  RCUT    TYP  RCUT                                                     
     0    -79.8442259     23  1.200                                                                 
     0     -4.7054661     23  1.700                                                                 
     1    -46.6121068     23  1.500                                                                 
     1      6.8029130     23  1.500                                                                 
     2     -1.3605826     23  1.700                                                                 
  local pseudopotential read in
  atomic valenz-charges read in
  non local Contribution for L=            0  read in
    real space projection operators read in
  non local Contribution for L=            0  read in
    real space projection operators read in
  non local Contribution for L=            1  read in
    real space projection operators read in
  non local Contribution for L=            1  read in
    real space projection operators read in
  non local Contribution for L=            2  read in
    real space projection operators read in
    PAW grid and wavefunctions read in
 
   number of l-projection  operators is LMAX  =            5
   number of lm-projection operators is LMMAX =           13
 
 POTCAR:    PAW_PBE O_h 06Feb2004                 
   SHA256 =  7d3976308dcfb86c51a8aa000428ccf502aeca0a26316d98530ed0719b164db2 O_h/POTCAR            
   COPYR  = (c) Copyright 06Feb2004 Georg Kresse                                                    
   COPYR  = This file is part of the software VASP. Any use, copying, and all other rights are regul
   COPYR  = If you do not have a valid VASP license, you may not use, copy or distribute this file. 
   VRHFIN =O: s2p4                                                                                  
   LEXCH  = PE                                                                                      
   EATOM  =   432.3788 eV,   31.7789 Ry                                                             
                                                                                                    
   TITEL  = PAW_PBE O_h 06Feb2004                                                                   
   LULTRA =        F    use ultrasoft PP ?                                                          
   IUNSCR =        1    unscreen: 0-lin 1-nonlin 2-no                                               
   RPACOR =    0.800    partial core radius                                                         
   POMASS =   16.000; ZVAL   =    6.000    mass and valenz                                          
   RCORE  =    1.100    outmost cutoff radius                                                       
   RWIGS  =    1.400; RWIGS  =    0.741    wigner-seitz radius (au A)                               
   ENMAX  =  700.000; ENMIN  =  500.000 eV                                                          
   ICORE  =        2    local potential                                                             
   LCOR   =        T    correct aug charges                                                         
   LPAW   =        T    paw PP                                                                      
   EAUG   =  888.804                                                                                
   DEXC   =    0.000                                                                                
   RMAX   =    1.128    core radius for proj-oper                                                   
   RAUG   =    1.300    factor for augmentation sphere                                              
   RDEP   =    1.125    radius for radial grids                                                     
   RDEPT  =    1.088    core radius for aug-charge                                                  
                                                                                                    
   Atomic configuration                                                                             
    4 entries                                                                                       
     n  l   j            E        occ.                                                              
     1  0  0.50      -514.6923   2.0000                                                             
     2  0  0.50       -23.9615   2.0000                                                             
     2  1  0.50        -9.0305   4.0000                                                             
     3  2  1.50        -9.5241   0.0000                                                             
   Description                                                                                      
     l       E           TYP  RCUT    TYP  RCUT                                                     
     0    -23.9615319     23  1.100                                                                 
     0    -25.3221145     23  1.100                                                                 
     1     -9.0304911     23  1.100                                                                 
     1     -5.4802209     23  1.100                                                                 
     2     -9.5240782      7  1.100                                                                 
  local pseudopotential read in
  partial core-charges read in
  partial kinetic energy density read in
  atomic valenz-charges read in
  non local Contribution for L=            0  read in
    real space projection operators read in
  non local Contribution for L=            0  read in
    real space projection operators read in
  non local Contribution for L=            1  read in
    real space projection operators read in
  non local Contribution for L=            1  read in
    real space projection operators read in
    PAW grid and wavefunctions read in
 
   number of l-projection  operators is LMAX  =            4
   number of lm-projection operators is LMMAX =            8
 
 Optimization of the real space projectors (new method)

 maximal supplied QI-value         = 22.11
 optimisation between [QCUT,QGAM] = [ 16.14, 32.28] = [ 72.95,291.79] Ry 
 Optimized for a Real-space Cutoff    0.98 Angstroem

   l    n(q)    QCUT    max X(q) W(low)/X(q) W(high)/X(q)  e(spline) 
   0      9    16.140     8.730    0.14E-04    0.12E-04    0.27E-07
   0      9    16.140     8.910    0.19E-04    0.17E-04    0.41E-07
   1      9    16.140     2.513    0.16E-04    0.28E-04    0.54E-07
   1      9    16.140     3.341    0.27E-04    0.13E-03    0.17E-06
   2      9    16.140     3.683    0.18E-03    0.21E-03    0.81E-07
 Optimization of the real space projectors (new method)

 maximal supplied QI-value         = 34.20
 optimisation between [QCUT,QGAM] = [ 16.08, 32.15] = [ 72.37,289.48] Ry 
 Optimized for a Real-space Cutoff    0.71 Angstroem

   l    n(q)    QCUT    max X(q) W(low)/X(q) W(high)/X(q)  e(spline) 
   0      7    16.076   280.207    0.42E-03    0.69E-03    0.60E-07
   0      7    16.076   228.978    0.42E-03    0.69E-03    0.61E-07
   1      6    16.076    86.127    0.11E-03    0.66E-03    0.10E-06
   1      6    16.076    65.368    0.11E-03    0.65E-03    0.10E-06
  PAW_PBE Mg_sv 12Apr2007               :
 energy of atom  1       EATOM=-1728.4457
 kinetic energy error for atom=    0.0076 (will be added to EATOM!!)
  PAW_PBE O_h 06Feb2004                 :
 energy of atom  2       EATOM= -432.3788
 kinetic energy error for atom=    0.0171 (will be added to EATOM!!)
 
 
 POSCAR: Mg  O
  positions in direct lattice
  No initial velocities read in

 METAGGA = SCAN                                        LMAXTAU =  6    LMIXTAU =  F

 exchange correlation table for  LEXCH =        8
   RHO(1)=    0.500       N(1)  =     2000
   RHO(2)=  100.500       N(2)  =     4000
 


--------------------------------------------------------------------------------------------------------


 ion  position               nearest neighbor table
   1  0.000  0.750  0.230-
   2  0.250  0.000  0.230-
   3  0.000  0.000  0.354-
   4  0.250  0.750  0.354-
   5  0.000  0.750  0.479-
   6  0.250  1.000  0.479-
   7  0.000  1.000  0.603-
   8  0.250  0.750  0.602-
   9  0.000  0.250  0.230-
  10  0.250  0.500  0.230-
  11  0.000  0.500  0.354-
  12  0.250  0.250  0.354-
  13  1.000  0.250  0.479-
  14  0.251  0.500  0.480-
  15  0.000  0.500  0.602-
  16  0.250  0.250  0.602-
  17  0.500  0.750  0.230-
  18  0.750  0.000  0.230-
  19  0.500  0.000  0.354-
  20  0.750  0.750  0.354-
  21  0.500  0.749  0.480-
  22  0.750  1.000  0.479-
  23  0.500  0.000  0.602-
  24  0.750  0.750  0.602-
  25  0.500  0.250  0.230-
  26  0.750  0.500  0.230-
  27  0.500  0.500  0.354-
  28  0.750  0.250  0.354-
  29  0.500  0.251  0.480-
  30  0.749  0.500  0.480-
  31  0.500  0.499  0.611-
  32  0.750  0.250  0.602-
  33  0.000  0.750  0.354-
  34  0.250  0.000  0.354-
  35  0.000  0.000  0.230-
  36  0.250  0.750  0.230-
  37  1.000  0.750  0.606-
  38  0.249  1.000  0.606-
  39  1.000  1.000  0.479-
  40  0.250  0.750  0.479-
  41  0.000  0.250  0.354-
  42  0.250  0.500  0.354-
  43  0.000  0.500  0.230-
  44  0.250  0.250  0.230-
  45  0.000  0.249  0.606-
  46  0.247  0.500  0.606-
  47  0.000  0.500  0.479-
  48  0.250  0.250  0.479-
  49  0.500  0.750  0.354-
  50  0.750  0.000  0.354-
  51  0.500  0.000  0.230-
  52  0.750  0.750  0.230-
  53  0.500  0.753  0.606-
  54  0.751  1.000  0.606-
  55  0.500  1.000  0.479-
  56  0.750  0.750  0.479-
  57  0.500  0.250  0.354-
  58  0.750  0.500  0.354-
  59  0.500  0.500  0.230-
  60  0.750  0.250  0.230-
  61  0.500  0.247  0.606-
  62  0.753  0.500  0.606-
  63  0.500  0.500  0.480-
  64  0.750  0.250  0.479-
 

IMPORTANT INFORMATION: All symmetrisations will be switched off!
NOSYMM: (Re-)initialisation of all symmetry stuff for point group C_1.


----------------------------------------------------------------------------------------

                                     Primitive cell                                     

  volume of cell :    1211.2538

  direct lattice vectors                    reciprocal lattice vectors
     8.440984654  0.000000000  0.000000000     0.118469591  0.000000000  0.000000000
     0.000000000  8.440984654  0.000000000     0.000000000  0.118469591  0.000000000
     0.000000000  0.000000000 17.000000000     0.000000000  0.000000000  0.058823529

  length of vectors
     8.440984654  8.440984654 17.000000000     0.118469591  0.118469591  0.058823529

  position of ions in fractional coordinates (direct lattice)
     0.000000001  0.750005063  0.230190625
     0.250000001  0.000005063  0.230190625
     0.000000001  0.000005063  0.354322752
     0.250000001  0.750005063  0.354322752
     0.000000003  0.749688989  0.478992539
     0.250263523  0.999994937  0.479012029
     0.000000001  0.999958952  0.602562889
     0.249680170  0.750040946  0.602146405
     0.000000001  0.250005063  0.230190625
     0.250000001  0.500005063  0.230190625
     0.000000001  0.500005063  0.354322752
     0.250000001  0.250005063  0.354322752
     0.999999996  0.250234310  0.479017192
     0.251264403  0.499912485  0.479817993
     0.000000018  0.499894003  0.602327959
     0.249874846  0.249737023  0.602282337
     0.500000001  0.750005063  0.230190625
     0.750000001  0.000005063  0.230190625
     0.500000001  0.000005063  0.354322752
     0.750000001  0.750005063  0.354322752
     0.499999997  0.748694190  0.479856547
     0.749736478  0.999994937  0.479012045
     0.499999996  0.000235948  0.602315670
     0.750319839  0.750040932  0.602146398
     0.500000001  0.250005063  0.230190625
     0.750000001  0.500005063  0.230190625
     0.500000001  0.500005063  0.354322752
     0.750000001  0.250005063  0.354322752
     0.500000000  0.251193808  0.479761393
     0.748735611  0.499912479  0.479818037
     0.500000034  0.498643644  0.610784368
     0.750125162  0.249737020  0.602282348
     0.000000001  0.750005063  0.354322752
     0.250000001  0.000005063  0.354322752
     0.000000001  0.000005063  0.230190625
     0.250000001  0.750005063  0.230190625
     0.999999999  0.750491851  0.605981896
     0.249403678  0.999911150  0.606023354
     0.999999998  0.999937384  0.478809541
     0.249933155  0.750101855  0.478982330
     0.000000001  0.250005063  0.354322752
     0.250000001  0.500005063  0.354322752
     0.000000001  0.500005063  0.230190625
     0.250000001  0.250005063  0.230190625
     0.000000003  0.249368438  0.606057731
     0.247373171  0.499932707  0.606018755
     0.000000006  0.499983562  0.478713219
     0.249818530  0.249806475  0.478943030
     0.500000001  0.750005063  0.354322752
     0.750000001  0.000005063  0.354322752
     0.500000001  0.000005063  0.230190625
     0.750000001  0.750005063  0.230190625
     0.499999997  0.752922771  0.606464953
     0.750596323  0.999911142  0.606023376
     0.500000001  0.999876204  0.478718645
     0.750066840  0.750101852  0.478982337
     0.500000001  0.250005063  0.354322752
     0.750000001  0.500005063  0.354322752
     0.500000001  0.500005063  0.230190625
     0.750000001  0.250005063  0.230190625
     0.500000003  0.247335548  0.605753670
     0.752626877  0.499932691  0.606018757
     0.500000006  0.500046709  0.480056781
     0.750181474  0.249806464  0.478943037

  ion indices of the primitive-cell ions
   primitive index   ion index
                 1           1
                 2           2
                 3           3
                 4           4
                 5           5
                 6           6
                 7           7
                 8           8
                 9           9
                10          10
                11          11
                12          12
                13          13
                14          14
                15          15
                16          16
                17          17
                18          18
                19          19
                20          20
                21          21
                22          22
                23          23
                24          24
                25          25
                26          26
                27          27
                28          28
                29          29
                30          30
                31          31
                32          32
                33          33
                34          34
                35          35
                36          36
                37          37
                38          38
                39          39
                40          40
                41          41
                42          42
                43          43
                44          44
                45          45
                46          46
                47          47
                48          48
                49          49
                50          50
                51          51
                52          52
                53          53
                54          54
                55          55
                56          56
                57          57
                58          58
                59          59
                60          60
                61          61
                62          62
                63          63
                64          64

----------------------------------------------------------------------------------------

 
 
 KPOINTS: pymatgen v2020.8.13 with grid density = 

Automatic generation of k-mesh.
 Grid dimensions read from file:
 generate k-points for:    2    2    1

 Generating k-lattice:

  Cartesian coordinates                     Fractional coordinates (reciprocal lattice)
     0.059234796  0.000000000  0.000000000     0.500000000  0.000000000  0.000000000
     0.000000000  0.059234796  0.000000000     0.000000000  0.500000000  0.000000000
     0.000000000  0.000000000  0.058823529     0.000000000  0.000000000  1.000000000

  Length of vectors
     0.059234796  0.059234796  0.058823529

  Shift w.r.t. Gamma in fractional coordinates (k-lattice)
     0.000000000  0.000000000  0.000000000

 
 Subroutine IBZKPT returns following result:
 ===========================================
 
 Found      4 irreducible k-points:
 
 Following reciprocal coordinates:
            Coordinates               Weight
  0.000000  0.000000  0.000000      1.000000
  0.500000  0.000000  0.000000      1.000000
  0.000000  0.500000  0.000000      1.000000
  0.500000  0.500000  0.000000      1.000000
 
 Following cartesian coordinates:
            Coordinates               Weight
  0.000000  0.000000  0.000000      1.000000
  0.059235  0.000000  0.000000      1.000000
  0.000000  0.059235  0.000000      1.000000
  0.059235  0.059235  0.000000      1.000000
 


--------------------------------------------------------------------------------------------------------




 Dimension of arrays:
   k-points           NKPTS =      4   k-points in BZ     NKDIM =      4   number of bands    NBANDS=    308
   number of dos      NEDOS =    301   number of ions     NIONS =     64
   non local maximal  LDIM  =      5   non local SUM 2l+1 LMDIM =     13
   total plane-waves  NPLWV = 686000
   max r-space proj   IRMAX =   2301   max aug-charges    IRDMAX=   7801
   dimension x,y,z NGX =    70 NGY =   70 NGZ =  140
   dimension x,y,z NGXF=   140 NGYF=  140 NGZF=  280
   support grid    NGXF=   140 NGYF=  140 NGZF=  280
   ions per type =              32  32
   NGX,Y,Z   is equivalent  to a cutoff of  13.79, 13.79, 13.69 a.u.
   NGXF,Y,Z  is equivalent  to a cutoff of  27.57, 27.57, 27.38 a.u.

 SYSTEM =  Oxide-Surface                           
 POSCAR =  Mg  O                                   

     8.440984654  8.440984654 17.000000000     0.118469591  0.118469591  0.058823529


 
 old parameters found on file WAVECAR:
  energy-cutoff  :     1000.00
  volume of cell :     1211.25
      direct lattice vectors                 reciprocal lattice vectors
     8.440984654  0.000000000  0.000000000     0.118469591  0.000000000  0.000000000
     0.000000000  8.440984654  0.000000000     0.000000000  0.118469591  0.000000000
     0.000000000  0.000000000 17.000000000     0.000000000  0.000000000  0.058823529

  length of vectors

 
 k-points in units of 2pi/SCALE and weight: pymatgen v2020.8.13 with grid density = 
   0.00000000  0.00000000  0.00000000       0.250
   0.05923480  0.00000000  0.00000000       0.250
   0.00000000  0.05923480  0.00000000       0.250
   0.05923480  0.05923480  0.00000000       0.250
 
 k-points in reciprocal lattice and weights: pymatgen v2020.8.13 with grid density = 
   0.00000000  0.00000000  0.00000000       0.250
   0.50000000  0.00000000  0.00000000       0.250
   0.00000000  0.50000000  0.00000000       0.250
   0.50000000  0.50000000  0.00000000       0.250
 
 position of ions in fractional coordinates (direct lattice) 
   0.00000000  0.75000506  0.23019063
   0.25000000  0.00000506  0.23019063
   0.00000000  0.00000506  0.35432275
   0.25000000  0.75000506  0.35432275
   0.00000000  0.74968899  0.47899254
   0.25026352  0.99999494  0.47901203
   0.00000000  0.99995895  0.60256289
   0.24968017  0.75004095  0.60214641
   0.00000000  0.25000506  0.23019063
   0.25000000  0.50000506  0.23019063
   0.00000000  0.50000506  0.35432275
   0.25000000  0.25000506  0.35432275
   1.00000000  0.25023431  0.47901719
   0.25126440  0.49991248  0.47981799
   0.00000002  0.49989400  0.60232796
   0.24987485  0.24973702  0.60228234
   0.50000000  0.75000506  0.23019063
   0.75000000  0.00000506  0.23019063
   0.50000000  0.00000506  0.35432275
   0.75000000  0.75000506  0.35432275
   0.50000000  0.74869419  0.47985655
   0.74973648  0.99999494  0.47901204
   0.50000000  0.00023595  0.60231567
   0.75031984  0.75004093  0.60214640
   0.50000000  0.25000506  0.23019063
   0.75000000  0.50000506  0.23019063
   0.50000000  0.50000506  0.35432275
   0.75000000  0.25000506  0.35432275
   0.50000000  0.25119381  0.47976139
   0.74873561  0.49991248  0.47981804
   0.50000003  0.49864364  0.61078437
   0.75012516  0.24973702  0.60228235
   0.00000000  0.75000506  0.35432275
   0.25000000  0.00000506  0.35432275
   0.00000000  0.00000506  0.23019063
   0.25000000  0.75000506  0.23019063
   1.00000000  0.75049185  0.60598190
   0.24940368  0.99991115  0.60602335
   1.00000000  0.99993738  0.47880954
   0.24993315  0.75010185  0.47898233
   0.00000000  0.25000506  0.35432275
   0.25000000  0.50000506  0.35432275
   0.00000000  0.50000506  0.23019063
   0.25000000  0.25000506  0.23019063
   0.00000000  0.24936844  0.60605773
   0.24737317  0.49993271  0.60601875
   0.00000001  0.49998356  0.47871322
   0.24981853  0.24980648  0.47894303
   0.50000000  0.75000506  0.35432275
   0.75000000  0.00000506  0.35432275
   0.50000000  0.00000506  0.23019063
   0.75000000  0.75000506  0.23019063
   0.50000000  0.75292277  0.60646495
   0.75059632  0.99991114  0.60602338
   0.50000000  0.99987620  0.47871865
   0.75006684  0.75010185  0.47898234
   0.50000000  0.25000506  0.35432275
   0.75000000  0.50000506  0.35432275
   0.50000000  0.50000506  0.23019063
   0.75000000  0.25000506  0.23019063
   0.50000000  0.24733555  0.60575367
   0.75262688  0.49993269  0.60601876
   0.50000001  0.50004671  0.48005678
   0.75018147  0.24980646  0.47894304
 
 position of ions in cartesian coordinates  (Angst):
   0.00000001  6.33078123  3.91324063
   2.11024617  0.00004274  3.91324063
   0.00000001  0.00004274  6.02348679
   2.11024617  6.33078123  6.02348679
   0.00000002  6.32811325  8.14287316
   2.11247056  8.44094192  8.14320449
   0.00000001  8.44063817 10.24356912
   2.10754649  6.33108412 10.23648889
   0.00000001  2.11028890  3.91324063
   2.11024617  4.22053507  3.91324063
   0.00000001  4.22053507  6.02348679
   2.11024617  2.11028890  6.02348679
   8.44098462  2.11222397  8.14329227
   2.12091897  4.21975361  8.15690588
   0.00000015  4.21959760 10.23957530
   2.10918974  2.10802638 10.23879972
   4.22049233  6.33078123  3.91324063
   6.33073850  0.00004274  3.91324063
   4.22049233  0.00004274  6.02348679
   6.33073850  6.33078123  6.02348679
   4.22049230  6.31971617  8.15756130
   6.32851410  8.44094191  8.14320476
   4.22049229  0.00199163 10.23936639
   6.33343824  6.33108400 10.23648877
   4.22049233  2.11028890  3.91324063
   6.33073850  4.22053507  3.91324063
   4.22049233  4.22053507  6.02348679
   6.33073850  2.11028890  6.02348679
   4.22049232  2.12032308  8.15594368
   6.32006581  4.21975356  8.15690662
   4.22049262  4.20904334 10.38333426
   6.33179498  2.10802635 10.23879992
   0.00000001  6.33078123  6.02348679
   2.11024617  0.00004274  6.02348679
   0.00000001  0.00004274  3.91324063
   2.11024617  6.33078123  3.91324063
   8.44098465  6.33489020 10.30169222
   2.10521262  8.44023467 10.30239702
   8.44098463  8.44045611  8.13976220
   2.10968192  6.33159825  8.14269962
   0.00000001  2.11028890  6.02348679
   2.11024617  4.22053507  6.02348679
   0.00000001  4.22053507  3.91324063
   2.11024617  2.11028890  3.91324063
   0.00000002  2.10491515 10.30298143
   2.08807314  4.21992431 10.30231883
   0.00000005  4.22035357  8.13812473
   2.10871438  2.10861262  8.14203151
   4.22049233  6.33078123  6.02348679
   6.33073850  0.00004274  6.02348679
   4.22049233  0.00004274  3.91324063
   6.33073850  6.33078123  3.91324063
   4.22049230  6.35540955 10.30990421
   6.33577204  8.44023460 10.30239739
   4.22049234  8.43993970  8.13821697
   6.33130268  6.33159822  8.14269972
   4.22049233  2.11028890  6.02348679
   6.33073850  4.22053507  6.02348679
   4.22049233  4.22053507  3.91324063
   6.33073850  2.11028890  3.91324063
   4.22049235  2.08775557 10.29781240
   6.35291192  4.21992417 10.30231887
   4.22049238  4.22088659  8.16096527
   6.33227031  2.10861253  8.14203162
 


--------------------------------------------------------------------------------------------------------

--------------------------------------- Iteration      FINAL  ---------------------------------------


--------------------OUTCAR has been truncated-------------------------


--------------------OUTCAR has been truncated-------------------------


--------------------OUTCAR has been truncated-------------------------


--------------------OUTCAR has been truncated-------------------------


--------------------OUTCAR has been truncated-------------------------


--------------------OUTCAR has been truncated-------------------------


--------------------OUTCAR has been truncated-------------------------


--------------------OUTCAR has been truncated-------------------------


--------------------OUTCAR has been truncated-------------------------


--------------------OUTCAR has been truncated-------------------------


    MIXING:  cpu time      0.0393: real time      0.0394
    OFIELD:  cpu time      0.0001: real time      0.0001

  FORCE on cell =-STRESS in cart. coord.  units (eV):
  Direction    XX          YY          ZZ          XY          YZ          ZX
  --------------------------------------------------------------------------------------
  Alpha Z  1191.54525  1191.54525  1191.54525
  Ewald  112195.14665112195.40277************     0.00000     0.46211     0.00002
  Hartree128823.88870128824.03584************    -0.00000     0.22548     0.00017
  E(xc)   -3446.28390 -3446.28284 -3445.97110    -0.00000     0.00006     0.00008
  Local  ************************250788.42160    -0.00000    -0.64895    -0.00072
  n-local -5545.45685 -5545.45950 -5545.91629    -0.00001    -0.00307    -0.00012
  augment   822.83804   822.87154   815.76726    -0.00002    -0.03683    -0.00013
  Kinetic 12503.95014 12503.94602 12514.66966    -0.00000     0.04651     0.00119
  Fock        0.00000     0.00000     0.00000     0.00000     0.00000     0.00000
  -------------------------------------------------------------------------------------
  Total     -45.51563   -45.48221   -12.83434    -0.00004     0.04532     0.00048
  in kB     -60.20548   -60.16127   -16.97653    -0.00005     0.05994     0.00064
  external pressure =      -45.78 kB  Pullay stress =        0.00 kB


 VOLUME and BASIS-vectors are now :
 -----------------------------------------------------------------------------
  energy-cutoff  :     1000.00
  volume of cell :     1211.25
      direct lattice vectors                 reciprocal lattice vectors
     8.440984654  0.000000000  0.000000000     0.118469591  0.000000000  0.000000000
     0.000000000  8.440984654  0.000000000     0.000000000  0.118469591  0.000000000
     0.000000000  0.000000000 17.000000000     0.000000000  0.000000000  0.058823529

  length of vectors
     8.440984654  8.440984654 17.000000000     0.118469591  0.118469591  0.058823529


 FORCES acting on ions
    electron-ion (+dipol)            ewald-force                    non-local-force                 convergence-correction
 -----------------------------------------------------------------------------------------------
   -.538E-05 0.367E+00 0.245E+04   -.949E-05 -.371E+00 -.244E+04   0.997E-05 0.488E-02 -.969E+01   0.350E-05 -.160E-04 -.388E-02
   -.367E+00 0.422E-01 0.245E+04   0.371E+00 -.433E-01 -.244E+04   -.353E-02 0.217E-02 -.970E+01   0.218E-04 -.502E-05 -.386E-02
   0.174E-04 0.882E-01 0.813E+03   -.303E-04 -.861E-01 -.813E+03   -.231E-05 -.164E-02 0.782E+00   0.119E-05 0.115E-04 -.389E-02
   -.209E+01 0.202E+01 0.810E+03   0.215E+01 -.207E+01 -.811E+03   -.495E-01 0.400E-01 0.920E+00   0.279E-04 -.382E-04 -.384E-02
   -.799E-05 0.109E+01 -.816E+03   -.178E-04 -.108E+01 0.816E+03   0.432E-04 0.594E-01 -.209E+00   -.273E-05 -.113E-04 -.266E-02
   -.112E+01 0.502E+00 -.817E+03   0.112E+01 -.503E+00 0.817E+03   -.533E-01 -.163E-02 -.205E+00   -.913E-06 0.404E-05 -.268E-02
   -.270E-04 0.250E+00 -.243E+04   0.231E-04 -.237E+00 0.242E+04   0.928E-04 -.244E-01 0.765E+01   -.568E-05 0.649E-05 -.899E-03
   -.413E+01 0.297E+01 -.242E+04   0.369E+01 -.242E+01 0.241E+04   0.357E+00 -.460E+00 0.799E+01   0.771E-04 -.100E-03 -.973E-03
   -.994E-05 -.367E+00 0.245E+04   -.894E-05 0.371E+00 -.244E+04   0.181E-05 -.179E-02 -.970E+01   0.132E-04 0.121E-04 -.388E-02
   -.443E+00 -.432E-01 0.245E+04   0.453E+00 0.437E-01 -.244E+04   -.833E-02 0.961E-03 -.972E+01   0.711E-05 0.465E-05 -.384E-02
   0.302E-04 -.961E-01 0.811E+03   -.620E-04 0.899E-01 -.811E+03   0.109E-05 0.483E-02 0.752E+00   0.517E-05 -.102E-04 -.383E-02
   -.194E+01 -.202E+01 0.811E+03   0.198E+01 0.207E+01 -.811E+03   -.298E-01 -.363E-01 0.912E+00   0.303E-04 0.344E-04 -.382E-02
   -.463E-04 -.108E+01 -.817E+03   0.108E-04 0.107E+01 0.817E+03   0.350E-04 -.478E-01 -.178E+00   0.343E-05 0.136E-04 -.266E-02
   -.627E+01 -.619E+00 -.826E+03   0.673E+01 0.623E+00 0.826E+03   -.444E+00 -.532E-02 -.328E+00   -.796E-04 0.214E-05 -.262E-02
   0.250E-03 -.244E+00 -.242E+04   0.991E-04 0.227E+00 0.242E+04   -.876E-03 0.251E-01 0.762E+01   0.105E-04 0.121E-05 -.919E-03
   -.166E+01 -.238E+01 -.242E+04   0.101E+01 0.181E+01 0.242E+04   0.527E+00 0.463E+00 0.798E+01   0.668E-04 0.859E-04 -.101E-02
   0.427E-05 0.442E+00 0.245E+04   0.955E-05 -.453E+00 -.244E+04   -.137E-04 0.968E-02 -.973E+01   -.354E-05 -.130E-05 -.384E-02
   0.367E+00 0.422E-01 0.245E+04   -.371E+00 -.433E-01 -.244E+04   0.352E-02 0.218E-02 -.970E+01   -.233E-04 -.113E-04 -.387E-02
   -.188E-04 0.259E+00 0.811E+03   0.328E-04 -.281E+00 -.811E+03   -.283E-04 0.164E-01 0.750E+00   -.118E-05 0.182E-04 -.385E-02
   0.209E+01 0.202E+01 0.810E+03   -.215E+01 -.207E+01 -.811E+03   0.495E-01 0.400E-01 0.920E+00   -.268E-04 -.359E-04 -.382E-02
   0.210E-04 0.658E+01 -.829E+03   0.902E-05 -.703E+01 0.829E+03   -.342E-04 0.416E+00 -.261E+00   0.635E-06 0.608E-04 -.262E-02
   0.112E+01 0.502E+00 -.817E+03   -.112E+01 -.503E+00 0.817E+03   0.534E-01 -.162E-02 -.205E+00   0.358E-05 -.231E-05 -.266E-02
   -.149E-04 0.152E+01 -.242E+04   0.240E-05 -.174E+01 0.242E+04   0.917E-04 0.197E+00 0.760E+01   0.468E-05 0.143E-04 -.925E-03
   0.413E+01 0.297E+01 -.242E+04   -.369E+01 -.242E+01 0.241E+04   -.357E+00 -.460E+00 0.799E+01   -.767E-04 -.854E-04 -.998E-03
   0.775E-05 -.443E+00 0.245E+04   0.919E-05 0.453E+00 -.244E+04   -.367E-05 -.656E-02 -.972E+01   -.922E-05 0.457E-06 -.383E-02
   0.443E+00 -.432E-01 0.245E+04   -.453E+00 0.437E-01 -.244E+04   0.829E-02 0.965E-03 -.972E+01   -.666E-05 0.133E-04 -.384E-02
   -.339E-04 -.269E+00 0.805E+03   0.663E-04 0.284E+00 -.805E+03   0.341E-04 -.124E-01 0.110E+01   -.434E-05 -.134E-04 -.389E-02
   0.194E+01 -.202E+01 0.811E+03   -.198E+01 0.207E+01 -.811E+03   0.298E-01 -.363E-01 0.912E+00   -.294E-04 0.277E-04 -.381E-02
   0.149E-04 -.608E+01 -.824E+03   0.194E-04 0.653E+01 0.824E+03   -.829E-05 -.455E+00 -.351E+00   -.642E-05 -.617E-04 -.267E-02
   0.627E+01 -.619E+00 -.826E+03   -.673E+01 0.623E+00 0.826E+03   0.444E+00 -.533E-02 -.327E+00   0.806E-04 0.825E-05 -.262E-02
   0.347E-03 -.623E+01 -.248E+04   -.111E-03 0.609E+01 0.247E+04   -.459E-04 0.248E+00 0.936E+01   -.142E-04 0.486E-06 -.846E-03
   0.166E+01 -.238E+01 -.242E+04   -.101E+01 0.181E+01 0.242E+04   -.528E+00 0.463E+00 0.798E+01   -.603E-04 0.678E-04 -.994E-03
   0.210E-04 0.734E+00 0.487E+03   -.226E-04 -.740E+00 -.487E+03   -.790E-05 0.775E-02 -.370E-01   0.178E-05 -.124E-04 -.204E-02
   -.742E+00 0.117E+00 0.487E+03   0.751E+00 -.115E+00 -.487E+03   -.128E-01 -.199E-02 -.461E-01   0.105E-04 0.270E-05 -.203E-02
   0.170E-04 0.191E-01 0.148E+04   -.465E-05 -.188E-01 -.149E+04   -.578E-05 -.555E-03 0.251E+01   -.155E-05 0.633E-05 -.210E-02
   -.254E+00 0.249E+00 0.148E+04   0.264E+00 -.257E+00 -.149E+04   -.121E-01 0.967E-02 0.249E+01   0.151E-04 -.142E-04 -.210E-02
   -.290E-04 0.955E+00 -.149E+04   0.284E-04 -.906E+00 0.150E+04   0.112E-04 -.105E+00 -.509E+01   0.612E-06 0.151E-04 -.618E-03
   -.104E+01 0.488E+00 -.149E+04   0.102E+01 -.577E+00 0.150E+04   0.656E-01 0.111E+00 -.509E+01   -.231E-04 0.268E-05 -.630E-03
   0.662E-04 0.574E-01 -.485E+03   -.298E-05 -.612E-01 0.484E+03   -.120E-03 0.405E-02 0.181E+00   -.165E-05 0.139E-04 -.144E-02
   -.241E+01 0.221E+01 -.484E+03   0.236E+01 -.213E+01 0.483E+03   0.751E-01 -.987E-01 0.545E+00   0.591E-05 -.101E-04 -.146E-02
   0.309E-04 -.744E+00 0.487E+03   -.173E-04 0.755E+00 -.487E+03   -.345E-04 -.151E-01 -.482E-01   0.415E-05 0.105E-04 -.203E-02
   -.107E+01 -.132E+00 0.483E+03   0.994E+00 0.138E+00 -.483E+03   0.905E-01 -.703E-02 -.126E+00   0.955E-05 -.126E-05 -.204E-02
   0.621E-04 -.190E-01 0.148E+04   -.705E-05 0.188E-01 -.149E+04   -.845E-04 0.216E-03 0.250E+01   0.361E-05 -.468E-05 -.209E-02
   -.243E+00 -.249E+00 0.148E+04   0.249E+00 0.256E+00 -.149E+04   -.854E-02 -.102E-01 0.249E+01   0.806E-05 0.176E-04 -.211E-02
   -.781E-04 -.960E+00 -.149E+04   0.308E-04 0.914E+00 0.150E+04   0.722E-04 0.101E+00 -.507E+01   -.266E-05 -.167E-04 -.622E-03
   -.776E+01 -.813E+00 -.149E+04   0.721E+01 0.907E+00 0.149E+04   0.880E+00 -.117E+00 -.397E+01   -.119E-04 0.163E-05 -.565E-03
   0.419E-03 -.693E-01 -.482E+03   0.198E-05 0.723E-01 0.481E+03   -.693E-03 -.430E-02 0.538E+00   0.270E-05 -.551E-05 -.147E-02
   -.195E+01 -.214E+01 -.483E+03   0.188E+01 0.207E+01 0.483E+03   0.110E+00 0.103E+00 0.533E+00   -.324E-05 0.122E-04 -.147E-02
   -.205E-04 0.106E+01 0.483E+03   0.227E-04 -.988E+00 -.483E+03   -.336E-05 -.954E-01 -.141E+00   -.280E-05 -.135E-04 -.204E-02
   0.742E+00 0.117E+00 0.487E+03   -.751E+00 -.115E+00 -.487E+03   0.128E-01 -.199E-02 -.462E-01   -.956E-05 0.234E-05 -.202E-02
   -.167E-04 0.308E-01 0.148E+04   0.472E-05 -.331E-01 -.149E+04   0.333E-04 0.286E-02 0.250E+01   0.181E-05 -.140E-05 -.208E-02
   0.254E+00 0.249E+00 0.148E+04   -.264E+00 -.257E+00 -.149E+04   0.121E-01 0.968E-02 0.249E+01   -.162E-04 -.144E-04 -.211E-02
   0.338E-04 0.982E+01 -.149E+04   -.130E-05 -.935E+01 0.149E+04   -.167E-04 -.837E+00 -.419E+01   -.321E-05 0.928E-05 -.575E-03
   0.104E+01 0.488E+00 -.149E+04   -.102E+01 -.577E+00 0.150E+04   -.657E-01 0.111E+00 -.509E+01   0.243E-04 0.840E-05 -.622E-03
   -.803E-04 0.562E+00 -.482E+03   0.148E-04 -.597E+00 0.481E+03   0.105E-03 0.411E-01 0.532E+00   -.996E-06 0.248E-05 -.148E-02
   0.241E+01 0.221E+01 -.484E+03   -.236E+01 -.213E+01 0.483E+03   -.751E-01 -.987E-01 0.545E+00   -.384E-05 -.723E-05 -.146E-02
   -.349E-04 -.108E+01 0.483E+03   0.216E-04 0.101E+01 -.483E+03   0.283E-04 0.871E-01 -.110E+00   -.337E-05 0.103E-04 -.205E-02
   0.107E+01 -.132E+00 0.483E+03   -.994E+00 0.138E+00 -.483E+03   -.905E-01 -.703E-02 -.127E+00   -.951E-05 0.251E-05 -.204E-02
   -.581E-04 -.307E-01 0.148E+04   0.718E-05 0.331E-01 -.149E+04   0.691E-04 -.321E-02 0.248E+01   -.436E-05 0.180E-05 -.210E-02
   0.243E+00 -.249E+00 0.148E+04   -.249E+00 0.256E+00 -.149E+04   0.854E-02 -.102E-01 0.249E+01   -.105E-04 0.959E-05 -.209E-02
   0.126E-03 -.622E+01 -.148E+04   -.298E-04 0.557E+01 0.149E+04   -.123E-03 0.983E+00 -.383E+01   -.276E-06 -.206E-06 -.583E-03
   0.776E+01 -.813E+00 -.149E+04   -.721E+01 0.907E+00 0.149E+04   -.881E+00 -.117E+00 -.397E+01   0.121E-04 -.237E-05 -.565E-03
   -.400E-03 -.865E+00 -.511E+03   0.345E-05 0.907E+00 0.512E+03   0.691E-03 -.550E-01 -.890E+00   -.427E-06 0.865E-05 -.142E-02
   0.195E+01 -.214E+01 -.483E+03   -.188E+01 0.207E+01 0.483E+03   -.110E+00 0.103E+00 0.533E+00   0.639E-05 0.866E-05 -.146E-02
 -----------------------------------------------------------------------------------------------
   0.150E-02 -.562E+00 0.234E+02   0.776E-12 -.507E-12 -.148E-11   -.211E-02 0.528E+00 -.231E+02   0.381E-05 0.381E-04 -.140E+00
 
 
 POSITION                                       TOTAL-FORCE (eV/Angst)
 -----------------------------------------------------------------------------------
      0.00000      6.33078      3.91324         0.000008      0.000803      0.327066
      2.11025      0.00004      3.91324         0.001017      0.001588      0.327644
      0.00000      0.00004      6.02349        -0.000005      0.000995      0.192820
      2.11025      6.33078      6.02349         0.015706     -0.012687      0.187495
      0.00000      6.32811      8.14287         0.000024      0.064864      0.019864
      2.11247      8.44094      8.14320        -0.056503     -0.002142      0.025350
      0.00000      8.44064     10.24357         0.000093     -0.010500     -0.105941
      2.10755      6.33108     10.23649        -0.086545      0.097335      0.112755
      0.00000      2.11029      3.91324         0.000006      0.002768      0.327617
      2.11025      4.22054      3.91324         0.002043      0.001947      0.333989
      0.00000      4.22054      6.02349        -0.000016     -0.000881      0.209375
      2.11025      2.11029      6.02349         0.010145      0.012420      0.184523
      8.44098      2.11222      8.14329         0.000012     -0.053794      0.025062
      2.12092      4.21975      8.15691         0.019296     -0.000904     -0.012354
      0.00000      4.21960     10.23958        -0.000507      0.008634      0.007837
      2.10919      2.10803     10.23880        -0.125317     -0.113006     -0.010275
      4.22049      6.33078      3.91324         0.000006     -0.000202      0.334861
      6.33074      0.00004      3.91324        -0.001015      0.001602      0.327662
      4.22049      0.00004      6.02349        -0.000006     -0.004360      0.210127
      6.33074      6.33078      6.02349        -0.015668     -0.012705      0.187475
      4.22049      6.31972      8.15756         0.000006     -0.035248      0.026009
      6.32851      8.44094      8.14320         0.056548     -0.002133      0.025328
      4.22049      0.00199     10.23937         0.000093     -0.024663      0.028661
      6.33344      6.33108     10.23649         0.086578      0.097347      0.112957
      4.22049      2.11029      3.91324         0.000013      0.003811      0.332903
      6.33074      4.22054      3.91324        -0.002061      0.001953      0.333910
      4.22049      4.22054      6.02349         0.000072      0.003792      0.205592
      6.33074      2.11029      6.02349        -0.010183      0.012425      0.184568
      4.22049      2.12032      8.15594         0.000029     -0.007905     -0.045487
      6.32007      4.21975      8.15691        -0.019319     -0.000912     -0.011874
      4.22049      4.20904     10.38333         0.000185      0.109181     -0.896413
      6.33179      2.10803     10.23880         0.125265     -0.112971     -0.010389
      0.00000      6.33078      6.02349         0.000003      0.002957      0.033560
      2.11025      0.00004      6.02349        -0.003628     -0.000199      0.032563
      0.00000      0.00004      3.91324         0.000013      0.000302     -0.324453
      2.11025      6.33078      3.91324        -0.002809      0.002666     -0.335600
      8.44098      6.33489     10.30169         0.000009     -0.058646     -0.291495
      2.10521      8.44023     10.30240         0.054052      0.023837     -0.292876
      8.44098      8.44046      8.13976        -0.000055      0.000424     -0.015212
      2.10968      6.33160      8.14270         0.019868     -0.027497      0.017060
      0.00000      2.11029      6.02349        -0.000009     -0.003737      0.032247
      2.11025      4.22054      6.02349         0.018222     -0.000982      0.063450
      0.00000      4.22054      3.91324        -0.000020      0.000497     -0.327065
      2.11025      2.11029      3.91324        -0.001962     -0.001947     -0.335301
      0.00000      2.10492     10.30298         0.000037      0.059579     -0.287355
      2.08807      4.21992     10.30232         0.360579     -0.026875     -0.050436
      0.00000      4.22035      8.13812        -0.000301     -0.000926      0.048126
      2.10871      2.10861      8.14203         0.033928      0.031750      0.026531
      4.22049      6.33078      6.02349         0.000012     -0.018790      0.062743
      6.33074      0.00004      6.02349         0.003654     -0.000198      0.032467
      4.22049      0.00004      3.91324         0.000031      0.001102     -0.327222
      6.33074      6.33078      3.91324         0.002823      0.002665     -0.335622
      4.22049      6.35541     10.30990         0.000021     -0.384105     -0.119646
      6.33577      8.44023     10.30240        -0.054094      0.023838     -0.292916
      4.22049      8.43994      8.13822         0.000046      0.006140      0.048247
      6.33130      6.33160      8.14270        -0.019842     -0.027493      0.017069
      4.22049      2.11029      6.02349         0.000022      0.018127      0.064029
      6.33074      4.22054      6.02349        -0.018199     -0.000976      0.063433
      4.22049      4.22054      3.91324         0.000029     -0.000299     -0.329885
      6.33074      2.11029      3.91324         0.001992     -0.001954     -0.335330
      4.22049      2.08776     10.29781        -0.000026      0.362462     -0.019353
      6.35291      4.21992     10.30232        -0.360844     -0.026889     -0.050650
      4.22049      4.22089      8.16097         0.000355     -0.013015      0.003653
      6.33227      2.10861      8.14203        -0.033906      0.031731      0.026526
 -----------------------------------------------------------------------------------
    total drift:                               -0.000603     -0.033955      0.194170


--------------------------------------------------------------------------------------------------------



  FREE ENERGIE OF THE ION-ELECTRON SYSTEM (eV)
  ---------------------------------------------------
  free  energy   TOTEN  =      -531.18315984 eV

  energy  without entropy=     -531.18315984  energy(sigma->0) =     -531.18315984
 


--------------------------------------------------------------------------------------------------------


    POTLOK:  cpu time     23.3528: real time     23.4099


--------------------------------------------------------------------------------------------------------


     LOOP+:  cpu time    330.8944: real time    331.7524
    4ORBIT:  cpu time      0.0000: real time      0.0000

 total amount of memory used by VASP MPI-rank0   662156. kBytes
=======================================================================

   base      :      30000. kBytes
   nonlr-proj:      12343. kBytes
   fftplans  :      49105. kBytes
   grid      :     137748. kBytes
   one-center:        519. kBytes
   wavefun   :     432441. kBytes
 
  
  
 General timing and accounting informations for this job:
 ========================================================
  
                  Total CPU time used (sec):      339.567
                            User time (sec):      334.572
                          System time (sec):        4.995
                         Elapsed time (sec):      341.658
  
                   Maximum memory used (kb):     2571652.
                   Average memory used (kb):          N/A
  
                          Minor page faults:       295141
                          Major page faults:            0
                 Voluntary context switches:        15813
