 vasp.6.3.0 20Jan22 (build Mar 11 2022 13:48:16) complex                        
  
 executed on             LinuxIFC date 2024.01.23  02:03:22
 running on  304 total cores
 distrk:  each k-point on  304 cores,    1 groups
 distr:  one band on NCORE=   2 cores,  152 groups


--------------------------------------------------------------------------------------------------------


 INCAR:
   SYSTEM = TiO2
   ISMEAR = 0
   SIGMA = 0.05
   EDIFF = 1E-5
   ALGO = ALL
   ISTART = 0
   IBRION = -1
   NSW = 0
   ISYM = 0
   ISIF = 2
   EDIFFG = -0.01
   DIPOL = 0.5 0.5 0.5
   IDIPOL = 3
   LDIPOL = .TRUE.
   GGA = PE
   IVDW = 21
   LDAU = .TRUE.
   LDAUTYPE = 2
   LDAUL = 2 -1
   LDAUU = 4.2 0.0
   LDAUPRINT = 1
   LMAXMIX = 4
   ENCUT = 600
   PREC = Accurate
   LASPH = .TRUE.
   LREAL = .FALSE.
   ISPIN = 1
   NELM = 200
   NELMIN = 8
   NCORE = 2
   KPAR = 1
   LWAVE = .FALSE.
   LCHARG = .FALSE.

 POTCAR:    PAW_PBE Ti_pv 07Sep2000               
 POTCAR:    PAW_PBE O 08Apr2002                   
 -----------------------------------------------------------------------------
|                                                                             |
|           W    W    AA    RRRRR   N    N  II  N    N   GGGG   !!!           |
|           W    W   A  A   R    R  NN   N  II  NN   N  G    G  !!!           |
|           W    W  A    A  R    R  N N  N  II  N N  N  G       !!!           |
|           W WW W  AAAAAA  RRRRR   N  N N  II  N  N N  G  GGG   !            |
|           WW  WW  A    A  R   R   N   NN  II  N   NN  G    G                |
|           W    W  A    A  R    R  N    N  II  N    N   GGGG   !!!           |
|                                                                             |
|     For optimal performance we recommend to set                             |
|       NCORE = 2 up to number-of-cores-per-socket                            |
|     NCORE specifies how many cores store one orbital (NPAR=cpu/NCORE).      |
|     This setting can greatly improve the performance of VASP for DFT.       |
|     The default, NCORE=1 might be grossly inefficient on modern             |
|     multi-core architectures or massively parallel machines. Do your        |
|     own testing! More info at https://www.vasp.at/wiki/index.php/NCORE      |
|     Unfortunately you need to use the default for GW and RPA                |
|     calculations (for HF NCORE is supported but not extensively tested      |
|     yet).                                                                   |
|                                                                             |
 -----------------------------------------------------------------------------

 POTCAR:    PAW_PBE Ti_pv 07Sep2000               
   SHA256 =  f757a1b2c6d082f4c628fa3d987464a8763bf92e53844ac0500b0e2ddc9ce5c0 Ti_pv/POTCAR          
   COPYR  = (c) Copyright 07Sep2000 Georg Kresse                                                    
   COPYR  = This file is part of the software VASP. Any use, copying, and all other rights are regul
   COPYR  = If you do not have a valid VASP license, you may not use, copy or distribute this file. 
   VRHFIN =Ti: d3 s1                                                                                
   LEXCH  = PE                                                                                      
   EATOM  =  1042.5995 eV,   76.6289 Ry                                                             
                                                                                                    
   TITEL  = PAW_PBE Ti_pv 07Sep2000                                                                 
   LULTRA =        F    use ultrasoft PP ?                                                          
   IUNSCR =        1    unscreen: 0-lin 1-nonlin 2-no                                               
   RPACOR =    2.200    partial core radius                                                         
   POMASS =   47.880; ZVAL   =   10.000    mass and valenz                                          
   RCORE  =    2.500    outmost cutoff radius                                                       
   RWIGS  =    2.500; RWIGS  =    1.323    wigner-seitz radius (au A)                               
   ENMAX  =  222.335; ENMIN  =  166.751 eV                                                          
   RCLOC  =    1.701    cutoff for local pot                                                        
   LCOR   =        T    correct aug charges                                                         
   LPAW   =        T    paw PP                                                                      
   EAUG   =  482.848                                                                                
   DEXC   =    0.000                                                                                
   RMAX   =    2.564    core radius for proj-oper                                                   
   RAUG   =    1.300    factor for augmentation sphere                                              
   RDEP   =    2.538    radius for radial grids                                                     
   RDEPT  =    1.952    core radius for aug-charge                                                  
                                                                                                    
   Atomic configuration                                                                             
    8 entries                                                                                       
     n  l   j            E        occ.                                                              
     1  0  0.50     -4865.3608   2.0000                                                             
     2  0  0.50      -533.1368   2.0000                                                             
     2  1  1.50      -440.5031   6.0000                                                             
     3  0  0.50       -59.3186   2.0000                                                             
     3  1  1.50       -35.7012   6.0000                                                             
     3  2  2.50        -1.9157   3.0000                                                             
     4  0  0.50        -3.7291   1.0000                                                             
     4  3  2.50        -1.3606   0.0000                                                             
   Description                                                                                      
     l       E           TYP  RCUT    TYP  RCUT                                                     
     1    -35.7012140     23  2.300                                                                 
     1     -1.3605826     23  2.300                                                                 
     2     -1.9156996     23  2.500                                                                 
     2     -0.4063033     23  2.500                                                                 
     0     -3.7290856     23  2.500                                                                 
     0     20.4087390     23  2.500                                                                 
  local pseudopotential read in
  partial core-charges read in
  partial kinetic energy density read in
  atomic valenz-charges read in
  non local Contribution for L=           1  read in
    real space projection operators read in
  non local Contribution for L=           1  read in
    real space projection operators read in
  non local Contribution for L=           2  read in
    real space projection operators read in
  non local Contribution for L=           2  read in
    real space projection operators read in
  non local Contribution for L=           0  read in
    real space projection operators read in
  non local Contribution for L=           0  read in
    real space projection operators read in
    PAW grid and wavefunctions read in
 
   number of l-projection  operators is LMAX  =           6
   number of lm-projection operators is LMMAX =          18
 
 POTCAR:    PAW_PBE O 08Apr2002                   
   SHA256 =  818f92134a0a090dccd8ba1447fa70422a3b330e708bb4f08108d8ae51209ddf O/POTCAR              
   COPYR  = (c) Copyright 08Apr2002 Georg Kresse                                                    
   COPYR  = This file is part of the software VASP. Any use, copying, and all other rights are regul
   COPYR  = If you do not have a valid VASP license, you may not use, copy or distribute this file. 
   VRHFIN =O: s2p4                                                                                  
   LEXCH  = PE                                                                                      
   EATOM  =   432.3788 eV,   31.7789 Ry                                                             
                                                                                                    
   TITEL  = PAW_PBE O 08Apr2002                                                                     
   LULTRA =        F    use ultrasoft PP ?                                                          
   IUNSCR =        1    unscreen: 0-lin 1-nonlin 2-no                                               
   RPACOR =    1.200    partial core radius                                                         
   POMASS =   16.000; ZVAL   =    6.000    mass and valenz                                          
   RCORE  =    1.520    outmost cutoff radius                                                       
   RWIGS  =    1.550; RWIGS  =    0.820    wigner-seitz radius (au A)                               
   ENMAX  =  400.000; ENMIN  =  300.000 eV                                                          
   ICORE  =        2    local potential                                                             
   LCOR   =        T    correct aug charges                                                         
   LPAW   =        T    paw PP                                                                      
   EAUG   =  605.392                                                                                
   DEXC   =    0.000                                                                                
   RMAX   =    1.553    core radius for proj-oper                                                   
   RAUG   =    1.300    factor for augmentation sphere                                              
   RDEP   =    1.550    radius for radial grids                                                     
   RDEPT  =    1.329    core radius for aug-charge                                                  
                                                                                                    
   Atomic configuration                                                                             
    4 entries                                                                                       
     n  l   j            E        occ.                                                              
     1  0  0.50      -514.6923   2.0000                                                             
     2  0  0.50       -23.9615   2.0000                                                             
     2  1  0.50        -9.0305   4.0000                                                             
     3  2  1.50        -9.5241   0.0000                                                             
   Description                                                                                      
     l       E           TYP  RCUT    TYP  RCUT                                                     
     0    -23.9615318     23  1.200                                                                 
     0     -9.5240782     23  1.200                                                                 
     1     -9.0304911     23  1.520                                                                 
     1      8.1634956     23  1.520                                                                 
     2     -9.5240782      7  1.500                                                                 
  local pseudopotential read in
  partial core-charges read in
  partial kinetic energy density read in
  kinetic energy density of atom read in
  atomic valenz-charges read in
  non local Contribution for L=           0  read in
    real space projection operators read in
  non local Contribution for L=           0  read in
    real space projection operators read in
  non local Contribution for L=           1  read in
    real space projection operators read in
  non local Contribution for L=           1  read in
    real space projection operators read in
    PAW grid and wavefunctions read in
 
   number of l-projection  operators is LMAX  =           4
   number of lm-projection operators is LMMAX =           8
 
 -----------------------------------------------------------------------------
|                                                                             |
|               ----> ADVICE to this user running VASP <----                  |
|                                                                             |
|     You have a (more or less) 'large supercell' and for larger cells it     |
|     might be more efficient to use real-space projection operators.         |
|     Therefore, try LREAL= Auto in the INCAR file.                           |
|     Mind: For very accurate calculation, you might also keep the            |
|     reciprocal projection scheme (i.e. LREAL=.FALSE.).                      |
|                                                                             |
 -----------------------------------------------------------------------------

  PAW_PBE Ti_pv 07Sep2000               :
 energy of atom  1       EATOM=-1042.5995
 kinetic energy error for atom=    0.0007 (will be added to EATOM!!)
  PAW_PBE O 08Apr2002                   :
 energy of atom  2       EATOM= -432.3788
 kinetic energy error for atom=    0.0168 (will be added to EATOM!!)
 
 
 POSCAR: Ti  O
  positions in direct lattice
  No initial velocities read in
 exchange correlation table for  LEXCH =        8
   RHO(1)=    0.500       N(1)  =     2000
   RHO(2)=  100.500       N(2)  =     4000
 


--------------------------------------------------------------------------------------------------------


 ion  position               nearest neighbor table
   1  0.750  0.625  0.286-  81 1.98  82 1.98 141 1.98 142 1.98 163 2.00  84 2.00  11 3.03  31 3.03

   2  0.000  0.750  0.286-  83 1.98  84 1.98 103 1.98 104 1.98  85 2.00  32 3.03  12 3.03
   3  0.000  0.625  0.393-  86 1.98 146 1.98 145 1.98  85 1.98  87 2.00  88 2.00  13 3.03  33 3.03

   4  0.750  0.750  0.393-  87 1.98 107 1.98 168 1.98 188 1.98  89 2.00  82 2.00  14 3.03  34 3.03

   5  0.750  0.625  0.500-  89 1.98  90 1.98 149 1.98 150 1.98  92 2.00 171 2.00  15 3.03  35 3.03

   6  0.000  0.750  0.500-  91 1.98 111 1.98  92 1.98 112 1.98  86 2.00  93 2.01  16 3.03  36 3.03

   7  1.000  0.625  0.605-  93 1.94 153 1.94  95 1.98  96 1.98  94 2.03 154 2.03  17 3.03  37 3.03

   8  0.750  0.750  0.610-  97 1.92 176 2.00 196 2.00  95 2.00 115 2.00  90 2.09  38 3.03  18 3.03

   9  0.750  0.625  0.720-  98 1.87 158 1.87 179 2.06 100 2.06 157 2.11  97 2.11  19 3.03  39 3.03

  10  0.000  0.750  0.710-  94 1.86 120 1.97 119 1.97 100 1.97  99 1.97  20 3.03  40 3.03
  11  0.750  0.875  0.286-  81 1.98  82 1.98 101 1.98 102 1.98 183 2.00 104 2.00   1 3.03  21 3.03

  12  0.000  0.000  0.286- 103 1.98 104 1.98 123 1.98 124 1.98 105 2.00  22 3.03   2 3.03
  13  0.000  0.875  0.393-  86 1.98 106 1.98 105 1.98  85 1.98 107 2.00 108 2.00   3 3.03  23 3.03

  14  0.750  0.000  0.393- 107 1.98 127 1.98 188 1.98 208 1.98 109 2.00 102 2.00   4 3.03  24 3.03

  15  0.750  0.875  0.500-  89 1.98  90 1.98 109 1.98 110 1.98 112 2.00 191 2.00   5 3.03  25 3.03

  16  0.000  0.000  0.500- 111 1.98 131 1.98 112 1.98 132 1.98 106 2.00 113 2.01   6 3.03  26 3.03

  17  1.000  0.875  0.605- 113 1.94  93 1.94 115 1.98 116 1.98 114 2.03  94 2.03  27 3.03   7 3.03

  18  0.750  1.000  0.610- 117 1.92 196 2.00 216 2.00 135 2.00 115 2.00 110 2.09   8 3.03  28 3.03

  19  0.750  0.875  0.720- 118 1.87  98 1.88 199 2.06 120 2.06  97 2.11 117 2.11  29 3.02   9 3.03

  20  0.000  1.000  0.710- 114 1.86 140 1.97 120 1.97 119 1.97 139 1.97  10 3.03  30 3.03
  21  0.750  0.125  0.286- 101 1.98 102 1.98 121 1.98 122 1.98 203 2.00 124 2.00  11 3.03  31 3.03

  22  0.000  0.250  0.286- 123 1.98 124 1.98 143 1.98 144 1.98 125 2.00  32 3.03  12 3.03
  23  0.000  0.125  0.393- 106 1.98 126 1.98 125 1.98 105 1.98 127 2.00 128 2.00  13 3.03  33 3.03

  24  0.750  0.250  0.393- 127 1.98 147 1.98 208 1.98 228 1.98 129 2.00 122 2.00  14 3.03  34 3.03

  25  0.750  0.125  0.500- 109 1.98 110 1.98 129 1.98 130 1.98 132 2.00 211 2.00  15 3.03  35 3.03

  26  0.000  0.250  0.500- 131 1.98 151 1.98 132 1.98 152 1.98 126 2.00 133 2.01  16 3.03  36 3.03

  27  1.000  0.125  0.605- 113 1.94 133 1.94 135 1.98 136 1.98 114 2.03 134 2.03  17 3.03  37 3.03

  28  0.750  0.250  0.610- 137 1.92 236 2.00 216 2.00 155 2.00 135 2.00 130 2.09  38 3.03  18 3.03

  29  0.750  0.125  0.720- 118 1.87 138 1.88 219 2.06 140 2.06 137 2.11 117 2.11  19 3.02  39 3.03

  30  0.000  0.250  0.710- 134 1.86 140 1.97 139 1.97 160 1.97 159 1.97  20 3.03  40 3.03
  31  0.750  0.375  0.286- 121 1.98 122 1.98 141 1.98 142 1.98 223 2.00 144 2.00   1 3.03  21 3.03

  32  0.000  0.500  0.286-  83 1.98  84 1.98 143 1.98 144 1.98 145 2.00  22 3.03   2 3.03
  33  0.000  0.375  0.393- 126 1.98 146 1.98 145 1.98 125 1.98 147 2.00 148 2.00   3 3.03  23 3.03

  34  0.750  0.500  0.393-  87 1.98 147 1.98 168 1.98 228 1.98 149 2.00 142 2.00   4 3.03  24 3.03

  35  0.750  0.375  0.500- 129 1.98 130 1.98 149 1.98 150 1.98 152 2.00 231 2.00   5 3.03  25 3.03

  36  0.000  0.500  0.500-  91 1.98 151 1.98  92 1.98 152 1.98 146 2.00 153 2.01   6 3.03  26 3.03

  37  1.000  0.375  0.605- 133 1.94 153 1.94 155 1.98 156 1.98 134 2.03 154 2.03  27 3.03   7 3.03

  38  0.750  0.500  0.610- 157 1.92 236 2.00 176 2.00 155 2.00  95 2.00 150 2.09  28 3.03   8 3.03

  39  0.750  0.375  0.720- 138 1.87 158 1.87 239 2.06 160 2.06 157 2.11 137 2.11  29 3.03   9 3.03

  40  1.000  0.500  0.710- 154 1.86 160 1.97 100 1.97  99 1.97 159 1.97  30 3.03  10 3.03
  41  0.250  0.625  0.286- 161 1.98 162 1.98 221 1.98 222 1.98 164 2.00  83 2.00  51 3.03  71 3.03

  42  0.500  0.750  0.286- 163 1.98 164 1.98 183 1.98 184 1.98 165 2.00  72 3.03  52 3.03
  43  0.500  0.625  0.393- 166 1.98 226 1.98 225 1.98 165 1.98 168 2.00 167 2.00  53 3.03  73 3.03

  44  0.250  0.750  0.393-  88 1.98 108 1.98 167 1.98 187 1.98 169 2.00 162 2.00  54 3.03  74 3.03

  45  0.250  0.625  0.500- 169 1.98 170 1.98 229 1.98 230 1.98 172 2.00  91 2.00  55 3.03  75 3.03

  46  0.500  0.750  0.500- 171 1.98 191 1.98 172 1.98 192 1.98 166 2.00 173 2.01  56 3.03  76 3.03

  47  0.500  0.624  0.606- 233 1.94 173 1.96 176 1.98 175 1.98 174 2.02 234 2.02  77 3.01  57 3.03

  48  0.250  0.750  0.610- 177 1.92 175 2.00 195 2.00  96 2.00 116 2.00 170 2.09  58 3.03  78 3.03

  49  0.250  0.625  0.719- 178 1.87 238 1.89 180 2.05  99 2.06 177 2.10 237 2.10  59 3.02  79 3.04

  50  0.500  0.750  0.709- 174 1.86 180 1.96 179 1.96 199 1.97 200 1.97  60 3.02  80 3.03
  51  0.250  0.875  0.286- 161 1.98 162 1.98 181 1.98 182 1.98 184 2.00 103 2.00  41 3.03  61 3.03

  52  0.500  0.000  0.286- 183 1.98 184 1.98 203 1.98 204 1.98 185 2.00  62 3.03  42 3.03
  53  0.500  0.875  0.393- 166 1.98 186 1.98 185 1.98 165 1.98 188 2.00 187 2.00  43 3.03  63 3.03

  54  0.250  0.000  0.393- 108 1.98 128 1.98 187 1.98 207 1.98 189 2.00 182 2.00  44 3.03  64 3.03

  55  0.250  0.875  0.500- 169 1.98 170 1.98 189 1.98 190 1.98 192 2.00 111 2.00  45 3.03  65 3.03

  56  0.500  0.000  0.500- 191 1.98 211 1.98 192 1.98 212 1.98 193 2.00 186 2.00  46 3.03  66 3.03

  57  0.500  0.875  0.605- 173 1.94 193 1.94 196 1.98 195 1.98 174 2.02 194 2.03  47 3.03  67 3.03

  58  0.250  0.000  0.610- 197 1.92 215 2.00 195 2.00 136 2.00 116 2.00 190 2.09  68 3.03  48 3.03

  59  0.250  0.875  0.720- 198 1.87 178 1.88 200 2.06 119 2.06 197 2.11 177 2.11  49 3.02  69 3.02

  60  0.500  1.000  0.709- 194 1.86 199 1.97 219 1.97 200 1.97 220 1.97  50 3.02  70 3.02
  61  0.250  0.125  0.286- 181 1.98 182 1.98 201 1.98 202 1.98 204 2.00 123 2.00  51 3.03  71 3.03

  62  0.500  0.250  0.286- 203 1.98 204 1.98 223 1.98 224 1.98 205 2.00  72 3.03  52 3.03
  63  0.500  0.125  0.393- 186 1.98 206 1.98 205 1.98 185 1.98 208 2.00 207 2.00  53 3.03  73 3.03

  64  0.250  0.250  0.393- 128 1.98 148 1.98 207 1.98 227 1.98 209 2.00 202 2.00  54 3.03  74 3.03

  65  0.250  0.125  0.500- 189 1.98 190 1.98 209 1.98 210 1.98 212 2.00 131 2.00  55 3.03  75 3.03

  66  0.500  0.250  0.500- 211 1.98 231 1.98 212 1.98 232 1.98 206 2.00 213 2.01  56 3.03  76 3.03

  67  0.500  0.125  0.605- 213 1.94 193 1.94 216 1.98 215 1.98 214 2.02 194 2.03  77 3.03  57 3.03

  68  0.250  0.250  0.610- 217 1.92 235 2.00 215 2.00 156 2.00 136 2.00 210 2.09  58 3.03  78 3.03

  69  0.250  0.125  0.720- 198 1.87 218 1.88 220 2.06 139 2.06 197 2.11 217 2.11  79 3.02  59 3.02

  70  0.500  0.250  0.709- 214 1.86 240 1.96 239 1.96 219 1.97 220 1.97  60 3.02  80 3.03
  71  0.250  0.375  0.286- 201 1.98 202 1.98 221 1.98 222 1.98 224 2.00 143 2.00  41 3.03  61 3.03

  72  0.500  0.500  0.286- 163 1.98 164 1.98 223 1.98 224 1.98 225 2.00  62 3.03  42 3.03
  73  0.500  0.375  0.393- 206 1.98 226 1.98 225 1.98 205 1.98 228 2.00 227 2.00  43 3.03  63 3.03

  74  0.250  0.500  0.393-  88 1.98 148 1.98 167 1.98 227 1.98 229 2.00 222 2.00  44 3.03  64 3.03

  75  0.250  0.375  0.500- 209 1.98 210 1.98 229 1.98 230 1.98 232 2.00 151 2.00  45 3.03  65 3.03

  76  0.500  0.500  0.500- 171 1.98 231 1.98 172 1.98 232 1.98 226 2.00 233 2.01  46 3.03  66 3.03

  77  0.500  0.376  0.606- 233 1.94 213 1.96 236 1.98 235 1.98 214 2.02 234 2.02  47 3.01  67 3.03

  78  0.250  0.500  0.610- 237 1.92 235 2.00 175 2.00 156 2.00  96 2.00 230 2.09  48 3.03  68 3.03

  79  0.250  0.375  0.719- 218 1.87 238 1.89 240 2.05 159 2.06 217 2.10 237 2.10  69 3.02  49 3.04

  80  0.499  0.500  0.712- 234 1.90 179 1.97 239 1.97 180 1.98 240 1.98  50 3.03  70 3.03
  81  0.750  0.750  0.244-   1 1.98  11 1.98
  82  0.750  0.750  0.328-   1 1.98  11 1.98   4 2.00
  83  0.098  0.625  0.286-   2 1.98  32 1.98  41 2.00
  84  0.902  0.625  0.286-   2 1.98  32 1.98   1 2.00
  85  0.000  0.750  0.351-   3 1.98  13 1.98   2 2.00
  86  0.000  0.750  0.435-   3 1.98  13 1.98   6 2.00
  87  0.848  0.625  0.393-   4 1.98  34 1.98   3 2.00
  88  0.152  0.625  0.393-  44 1.98  74 1.98   3 2.00
  89  0.750  0.750  0.458-   5 1.98  15 1.98   4 2.00
  90  0.750  0.750  0.542-   5 1.98  15 1.98   8 2.09
  91  0.098  0.625  0.500-   6 1.98  36 1.98  45 2.00
  92  0.902  0.625  0.500-   6 1.98  36 1.98   5 2.00
  93  1.000  0.750  0.565-  17 1.94   7 1.94   6 2.01
  94  0.000  0.750  0.649-  10 1.86   7 2.03  17 2.03
  95  0.850  0.625  0.607-   7 1.98   8 2.00  38 2.00
  96  0.150  0.625  0.607-   7 1.98  48 2.00  78 2.00
  97  0.750  0.750  0.672-   8 1.92  19 2.11   9 2.11
  98  0.750  0.750  0.756-   9 1.87  19 1.88
  99  0.093  0.625  0.720-  40 1.97  10 1.97  49 2.06
 100  0.907  0.625  0.719-  40 1.97  10 1.97   9 2.06
 101  0.750  0.000  0.244-  11 1.98  21 1.98
 102  0.750  0.000  0.328-  11 1.98  21 1.98  14 2.00
 103  0.098  0.875  0.286-   2 1.98  12 1.98  51 2.00
 104  0.902  0.875  0.286-   2 1.98  12 1.98  11 2.00
 105  0.000  0.000  0.351-  13 1.98  23 1.98  12 2.00
 106  0.000  0.000  0.435-  13 1.98  23 1.98  16 2.00
 107  0.848  0.875  0.393-   4 1.98  14 1.98  13 2.00
 108  0.152  0.875  0.393-  44 1.98  54 1.98  13 2.00
 109  0.750  0.000  0.458-  15 1.98  25 1.98  14 2.00
 110  0.750  0.000  0.542-  15 1.98  25 1.98  18 2.09
 111  0.098  0.875  0.500-   6 1.98  16 1.98  55 2.00
 112  0.902  0.875  0.500-   6 1.98  16 1.98  15 2.00
 113  1.000  0.000  0.565-  17 1.94  27 1.94  16 2.01
 114  0.000  1.000  0.649-  20 1.86  17 2.03  27 2.03
 115  0.850  0.875  0.607-  17 1.98  18 2.00   8 2.00
 116  0.150  0.875  0.607-  17 1.98  58 2.00  48 2.00
 117  0.750  1.000  0.672-  18 1.92  29 2.11  19 2.11
 118  0.750  1.000  0.756-  19 1.87  29 1.87
 119  0.093  0.875  0.720-  10 1.97  20 1.97  59 2.06
 120  0.907  0.875  0.719-  10 1.97  20 1.97  19 2.06
 121  0.750  0.250  0.244-  21 1.98  31 1.98
 122  0.750  0.250  0.328-  21 1.98  31 1.98  24 2.00
 123  0.098  0.125  0.286-  12 1.98  22 1.98  61 2.00
 124  0.902  0.125  0.286-  12 1.98  22 1.98  21 2.00
 125  0.000  0.250  0.351-  23 1.98  33 1.98  22 2.00
 126  0.000  0.250  0.435-  23 1.98  33 1.98  26 2.00
 127  0.848  0.125  0.393-  14 1.98  24 1.98  23 2.00
 128  0.152  0.125  0.393-  54 1.98  64 1.98  23 2.00
 129  0.750  0.250  0.458-  25 1.98  35 1.98  24 2.00
 130  0.750  0.250  0.542-  25 1.98  35 1.98  28 2.09
 131  0.098  0.125  0.500-  16 1.98  26 1.98  65 2.00
 132  0.902  0.125  0.500-  16 1.98  26 1.98  25 2.00
 133  1.000  0.250  0.565-  27 1.94  37 1.94  26 2.01
 134  0.000  0.250  0.649-  30 1.86  37 2.03  27 2.03
 135  0.850  0.125  0.607-  27 1.98  18 2.00  28 2.00
 136  0.150  0.125  0.607-  27 1.98  58 2.00  68 2.00
 137  0.750  0.250  0.672-  28 1.92  29 2.11  39 2.11
 138  0.750  0.250  0.756-  39 1.87  29 1.88
 139  0.093  0.125  0.720-  30 1.97  20 1.97  69 2.06
 140  0.907  0.125  0.719-  30 1.97  20 1.97  29 2.06
 141  0.750  0.500  0.244-   1 1.98  31 1.98
 142  0.750  0.500  0.328-   1 1.98  31 1.98  34 2.00
 143  0.098  0.375  0.286-  22 1.98  32 1.98  71 2.00
 144  0.902  0.375  0.286-  22 1.98  32 1.98  31 2.00
 145  0.000  0.500  0.351-   3 1.98  33 1.98  32 2.00
 146  0.000  0.500  0.435-   3 1.98  33 1.98  36 2.00
 147  0.848  0.375  0.393-  24 1.98  34 1.98  33 2.00
 148  0.152  0.375  0.393-  64 1.98  74 1.98  33 2.00
 149  0.750  0.500  0.458-   5 1.98  35 1.98  34 2.00
 150  0.750  0.500  0.542-   5 1.98  35 1.98  38 2.09
 151  0.098  0.375  0.500-  26 1.98  36 1.98  75 2.00
 152  0.902  0.375  0.500-  26 1.98  36 1.98  35 2.00
 153  1.000  0.500  0.565-  37 1.94   7 1.94  36 2.01
 154  0.000  0.500  0.649-  40 1.86  37 2.03   7 2.03
 155  0.850  0.375  0.607-  37 1.98  28 2.00  38 2.00
 156  0.150  0.375  0.607-  37 1.98  68 2.00  78 2.00
 157  0.751  0.500  0.672-  38 1.92   9 2.11  39 2.11
 158  0.749  0.500  0.756-   9 1.87  39 1.87
 159  0.093  0.375  0.720-  40 1.97  30 1.97  79 2.06
 160  0.907  0.375  0.719-  40 1.97  30 1.97  39 2.06
 161  0.250  0.750  0.244-  41 1.98  51 1.98
 162  0.250  0.750  0.328-  41 1.98  51 1.98  44 2.00
 163  0.598  0.625  0.286-  42 1.98  72 1.98   1 2.00
 164  0.402  0.625  0.286-  42 1.98  72 1.98  41 2.00
 165  0.500  0.750  0.351-  43 1.98  53 1.98  42 2.00
 166  0.500  0.750  0.435-  43 1.98  53 1.98  46 2.00
 167  0.348  0.625  0.393-  44 1.98  74 1.98  43 2.00
 168  0.652  0.625  0.393-   4 1.98  34 1.98  43 2.00
 169  0.250  0.750  0.458-  45 1.98  55 1.98  44 2.00
 170  0.250  0.750  0.542-  45 1.98  55 1.98  48 2.09
 171  0.598  0.625  0.500-  46 1.98  76 1.98   5 2.00
 172  0.402  0.625  0.500-  46 1.98  76 1.98  45 2.00
 173  0.500  0.749  0.565-  57 1.94  47 1.96  46 2.01
 174  0.501  0.751  0.649-  50 1.86  57 2.02  47 2.02
 175  0.349  0.625  0.608-  47 1.98  48 2.00  78 2.00
 176  0.651  0.625  0.607-  47 1.98  38 2.00   8 2.00
 177  0.249  0.750  0.672-  48 1.92  49 2.10  59 2.11
 178  0.251  0.749  0.756-  49 1.87  59 1.88
 179  0.593  0.626  0.719-  50 1.96  80 1.97   9 2.06
 180  0.406  0.627  0.717-  50 1.96  80 1.98  49 2.05
 181  0.250  0.000  0.244-  51 1.98  61 1.98
 182  0.250  0.000  0.328-  51 1.98  61 1.98  54 2.00
 183  0.598  0.875  0.286-  42 1.98  52 1.98  11 2.00
 184  0.402  0.875  0.286-  42 1.98  52 1.98  51 2.00
 185  0.500  0.000  0.351-  53 1.98  63 1.98  52 2.00
 186  0.500  0.000  0.435-  53 1.98  63 1.98  56 2.00
 187  0.348  0.875  0.393-  44 1.98  54 1.98  53 2.00
 188  0.652  0.875  0.393-   4 1.98  14 1.98  53 2.00
 189  0.250  0.000  0.458-  55 1.98  65 1.98  54 2.00
 190  0.250  0.000  0.542-  55 1.98  65 1.98  58 2.09
 191  0.598  0.875  0.500-  46 1.98  56 1.98  15 2.00
 192  0.402  0.875  0.500-  46 1.98  56 1.98  55 2.00
 193  0.500  0.000  0.565-  57 1.94  67 1.94  56 2.00
 194  0.500  1.000  0.649-  60 1.86  57 2.03  67 2.03
 195  0.349  0.875  0.607-  57 1.98  48 2.00  58 2.00
 196  0.651  0.875  0.607-  57 1.98  18 2.00   8 2.00
 197  0.250  1.000  0.672-  58 1.92  59 2.11  69 2.11
 198  0.250  0.000  0.756-  59 1.87  69 1.87
 199  0.593  0.875  0.719-  60 1.97  50 1.97  19 2.06
 200  0.407  0.875  0.719-  60 1.97  50 1.97  59 2.06
 201  0.250  0.250  0.244-  61 1.98  71 1.98
 202  0.250  0.250  0.328-  61 1.98  71 1.98  64 2.00
 203  0.598  0.125  0.286-  52 1.98  62 1.98  21 2.00
 204  0.402  0.125  0.286-  52 1.98  62 1.98  61 2.00
 205  0.500  0.250  0.351-  63 1.98  73 1.98  62 2.00
 206  0.500  0.250  0.435-  63 1.98  73 1.98  66 2.00
 207  0.348  0.125  0.393-  54 1.98  64 1.98  63 2.00
 208  0.652  0.125  0.393-  14 1.98  24 1.98  63 2.00
 209  0.250  0.250  0.458-  65 1.98  75 1.98  64 2.00
 210  0.250  0.250  0.542-  65 1.98  75 1.98  68 2.09
 211  0.598  0.125  0.500-  56 1.98  66 1.98  25 2.00
 212  0.402  0.125  0.500-  56 1.98  66 1.98  65 2.00
 213  0.500  0.251  0.565-  67 1.94  77 1.96  66 2.01
 214  0.501  0.249  0.649-  70 1.86  67 2.02  77 2.02
 215  0.349  0.125  0.607-  67 1.98  68 2.00  58 2.00
 216  0.651  0.125  0.607-  67 1.98  18 2.00  28 2.00
 217  0.249  0.250  0.672-  68 1.92  79 2.10  69 2.11
 218  0.251  0.251  0.756-  79 1.87  69 1.88
 219  0.593  0.125  0.719-  60 1.97  70 1.97  29 2.06
 220  0.407  0.125  0.719-  60 1.97  70 1.97  69 2.06
 221  0.250  0.500  0.244-  41 1.98  71 1.98
 222  0.250  0.500  0.328-  41 1.98  71 1.98  74 2.00
 223  0.598  0.375  0.286-  62 1.98  72 1.98  31 2.00
 224  0.402  0.375  0.286-  62 1.98  72 1.98  71 2.00
 225  0.500  0.500  0.351-  43 1.98  73 1.98  72 2.00
 226  0.500  0.500  0.435-  43 1.98  73 1.98  76 2.00
 227  0.348  0.375  0.393-  64 1.98  74 1.98  73 2.00
 228  0.652  0.375  0.393-  24 1.98  34 1.98  73 2.00
 229  0.250  0.500  0.458-  45 1.98  75 1.98  74 2.00
 230  0.250  0.500  0.542-  45 1.98  75 1.98  78 2.09
 231  0.598  0.375  0.500-  66 1.98  76 1.98  35 2.00
 232  0.402  0.375  0.500-  66 1.98  76 1.98  75 2.00
 233  0.500  0.500  0.566-  77 1.94  47 1.94  76 2.01
 234  0.500  0.500  0.650-  80 1.90  47 2.02  77 2.02
 235  0.349  0.375  0.608-  77 1.98  68 2.00  78 2.00
 236  0.651  0.375  0.607-  77 1.98  38 2.00  28 2.00
 237  0.248  0.500  0.672-  78 1.92  49 2.10  79 2.10
 238  0.254  0.500  0.756-  49 1.89  79 1.89
 239  0.593  0.374  0.719-  70 1.96  80 1.97  39 2.06
 240  0.406  0.373  0.717-  70 1.96  80 1.98  79 2.05
 

IMPORTANT INFORMATION: All symmetrisations will be switched off!
NOSYMM: (Re-)initialisation of all symmetry stuff for point group C_1.


----------------------------------------------------------------------------------------

                                     Primitive cell                                     

  volume of cell :    4886.2662

  direct lattice vectors                    reciprocal lattice vectors
    13.143747607  0.000000000  0.000000000     0.076081802  0.000000000  0.000000000
     0.000000000 12.104894358  0.000000000     0.000000000  0.082611212  0.000000000
     0.000000000  0.000000000 30.711208800     0.000000000  0.000000000  0.032561401

  length of vectors
    13.143747607 12.104894358 30.711208800     0.076081802  0.082611212  0.032561401

  position of ions in fractional coordinates (direct lattice)
     0.750000000  0.625000000  0.286010579
     0.000000000  0.750000000  0.286010579
     0.000000000  0.625000000  0.393005289
     0.750000000  0.750000000  0.393005289
     0.750000000  0.625000000  0.500000000
     0.000000000  0.750000000  0.500000000
     0.999940488  0.625024783  0.605090832
     0.749989355  0.749989648  0.609836362
     0.749764582  0.625060347  0.720023896
     0.000062835  0.750037314  0.709774230
     0.750000000  0.875000000  0.286010579
     0.000000000  0.000000000  0.286010579
     0.000000000  0.875000000  0.393005289
     0.750000000  0.000000000  0.393005289
     0.750000000  0.875000000  0.500000000
     0.000000000  0.000000000  0.500000000
     0.999995705  0.875022930  0.605140200
     0.750055004  0.999999991  0.609841149
     0.749975721  0.875051955  0.720051213
     0.000112120  0.999999994  0.709786666
     0.750000000  0.125000000  0.286010579
     0.000000000  0.250000000  0.286010579
     0.000000000  0.125000000  0.393005289
     0.750000000  0.250000000  0.393005289
     0.750000000  0.125000000  0.500000000
     0.000000000  0.250000000  0.500000000
     0.999995687  0.124977077  0.605140202
     0.749989331  0.250010338  0.609836362
     0.749975725  0.124948024  0.720051211
     0.000062837  0.249962676  0.709774230
     0.750000000  0.375000000  0.286010579
     0.000000000  0.500000000  0.286010579
     0.000000000  0.375000000  0.393005289
     0.750000000  0.500000000  0.393005289
     0.750000000  0.375000000  0.500000000
     0.000000000  0.500000000  0.500000000
     0.999940482  0.374975228  0.605090830
     0.750017718  0.499999991  0.609904982
     0.749764588  0.374939633  0.720023897
     0.999596473  0.499999995  0.709738705
     0.250000000  0.625000000  0.286010579
     0.500000000  0.750000000  0.286010579
     0.500000000  0.625000000  0.393005289
     0.250000000  0.750000000  0.393005289
     0.250000000  0.625000000  0.500000000
     0.500000000  0.750000000  0.500000000
     0.500024655  0.624148824  0.605729616
     0.249914255  0.750037932  0.609705728
     0.249627772  0.625375174  0.719497890
     0.500298739  0.750308299  0.709190758
     0.250000000  0.875000000  0.286010579
     0.500000000  0.000000000  0.286010579
     0.500000000  0.875000000  0.393005289
     0.250000000  0.000000000  0.393005289
     0.250000000  0.875000000  0.500000000
     0.500000000  0.000000000  0.500000000
     0.500095179  0.874709344  0.604718731
     0.250077782  0.000000002  0.609850343
     0.250183124  0.875070782  0.720096611
     0.499980926  0.999999989  0.709324421
     0.250000000  0.125000000  0.286010579
     0.500000000  0.250000000  0.286010579
     0.500000000  0.125000000  0.393005289
     0.250000000  0.250000000  0.393005289
     0.250000000  0.125000000  0.500000000
     0.500000000  0.250000000  0.500000000
     0.500095177  0.125290654  0.604718734
     0.249914244  0.249962053  0.609705725
     0.250183126  0.124929214  0.720096603
     0.500298747  0.249691684  0.709190750
     0.250000000  0.375000000  0.286010579
     0.500000000  0.500000000  0.286010579
     0.500000000  0.375000000  0.393005289
     0.250000000  0.500000000  0.393005289
     0.250000000  0.375000000  0.500000000
     0.500000000  0.500000000  0.500000000
     0.500024641  0.375851189  0.605729602
     0.249791717  0.499999998  0.609707019
     0.249627775  0.374624818  0.719497896
     0.499217143  0.499999994  0.711823081
     0.750000000  0.750000000  0.244210511
     0.750000000  0.750000000  0.327810646
     0.097668537  0.625000000  0.286010579
     0.902331463  0.625000000  0.286010579
     0.000000000  0.750000000  0.351205222
     0.000000000  0.750000000  0.434805357
     0.847668537  0.625000000  0.393005289
     0.152331463  0.625000000  0.393005289
     0.750000000  0.750000000  0.458199933
     0.750000000  0.750000000  0.541800067
     0.097668537  0.625000000  0.500000000
     0.902331463  0.625000000  0.500000000
     0.999944703  0.750074812  0.565382594
     0.000239197  0.749927061  0.649079625
     0.849669784  0.625058109  0.607273955
     0.150291315  0.625113136  0.607077326
     0.750265026  0.750129610  0.672267282
     0.749773353  0.750011030  0.756085128
     0.093262991  0.624704640  0.719756222
     0.906619328  0.625105393  0.719450184
     0.750000000  0.000000000  0.244210511
     0.750000000  0.000000000  0.327810646
     0.097668537  0.875000000  0.286010579
     0.902331463  0.875000000  0.286010579
     0.000000000  0.000000000  0.351205222
     0.000000000  0.000000000  0.434805357
     0.847668537  0.875000000  0.393005289
     0.152331463  0.875000000  0.393005289
     0.750000000  0.000000000  0.458199933
     0.750000000  0.000000000  0.541800067
     0.097668537  0.875000000  0.500000000
     0.902331463  0.875000000  0.500000000
     0.999933095  0.000000004  0.565397082
     0.000167380  0.999999997  0.649087134
     0.849699766  0.874983430  0.607312136
     0.150385559  0.875150270  0.607219755
     0.750279346  0.999999992  0.672270960
     0.750321297  0.999999991  0.756091499
     0.093412520  0.874969058  0.719594190
     0.906807501  0.874923027  0.719394405
     0.750000000  0.250000000  0.244210511
     0.750000000  0.250000000  0.327810646
     0.097668537  0.125000000  0.286010579
     0.902331463  0.125000000  0.286010579
     0.000000000  0.250000000  0.351205222
     0.000000000  0.250000000  0.434805357
     0.847668537  0.125000000  0.393005289
     0.152331463  0.125000000  0.393005289
     0.750000000  0.250000000  0.458199933
     0.750000000  0.250000000  0.541800067
     0.097668537  0.125000000  0.500000000
     0.902331463  0.125000000  0.500000000
     0.999944698  0.249925195  0.565382594
     0.000239191  0.250072945  0.649079627
     0.849699755  0.125016559  0.607312136
     0.150385547  0.124849715  0.607219756
     0.750265013  0.249870369  0.672267282
     0.749773352  0.249988946  0.756085124
     0.093412518  0.125030936  0.719594187
     0.906807502  0.125076961  0.719394404
     0.750000000  0.500000000  0.244210511
     0.750000000  0.500000000  0.327810646
     0.097668537  0.375000000  0.286010579
     0.902331463  0.375000000  0.286010579
     0.000000000  0.500000000  0.351205222
     0.000000000  0.500000000  0.434805357
     0.847668537  0.375000000  0.393005289
     0.152331463  0.375000000  0.393005289
     0.750000000  0.500000000  0.458199933
     0.750000000  0.500000000  0.541800067
     0.097668537  0.375000000  0.500000000
     0.902331463  0.375000000  0.500000000
     0.999912830  0.500000003  0.565367706
     0.000102065  0.500000002  0.649049048
     0.849669778  0.374941879  0.607273956
     0.150291306  0.374886868  0.607077324
     0.750617635  0.499999996  0.672310205
     0.749408424  0.499999992  0.756043892
     0.093262991  0.375295351  0.719756224
     0.906619330  0.374894596  0.719450184
     0.250000000  0.750000000  0.244210511
     0.250000000  0.750000000  0.327810646
     0.597668537  0.625000000  0.286010579
     0.402331463  0.625000000  0.286010579
     0.500000000  0.750000000  0.351205222
     0.500000000  0.750000000  0.434805357
     0.347668537  0.625000000  0.393005289
     0.652331463  0.625000000  0.393005289
     0.250000000  0.750000000  0.458199933
     0.250000000  0.750000000  0.541800067
     0.597668537  0.625000000  0.500000000
     0.402331463  0.625000000  0.500000000
     0.499922390  0.749272693  0.565366802
     0.500511046  0.750780366  0.648633664
     0.349347770  0.624978676  0.607543286
     0.650613779  0.624943387  0.607397411
     0.248734482  0.750414518  0.672214991
     0.250750278  0.749461044  0.756023460
     0.593293165  0.625889498  0.718836953
     0.405624251  0.627010768  0.717444226
     0.250000000  0.000000000  0.244210511
     0.250000000  0.000000000  0.327810646
     0.597668537  0.875000000  0.286010579
     0.402331463  0.875000000  0.286010579
     0.500000000  0.000000000  0.351205222
     0.500000000  0.000000000  0.434805357
     0.347668537  0.875000000  0.393005289
     0.652331463  0.875000000  0.393005289
     0.250000000  0.000000000  0.458199933
     0.250000000  0.000000000  0.541800067
     0.597668537  0.875000000  0.500000000
     0.402331463  0.875000000  0.500000000
     0.499968086  0.000000002  0.565153773
     0.499947098  0.999999993  0.648681566
     0.349477092  0.874948838  0.607245739
     0.650571284  0.875079182  0.607163016
     0.249929070  0.999999987  0.672370355
     0.250095123  0.000000000  0.756164370
     0.593492611  0.875440229  0.719160997
     0.406651565  0.875096527  0.719196841
     0.250000000  0.250000000  0.244210511
     0.250000000  0.250000000  0.327810646
     0.597668537  0.125000000  0.286010579
     0.402331463  0.125000000  0.286010579
     0.500000000  0.250000000  0.351205222
     0.500000000  0.250000000  0.434805357
     0.347668537  0.125000000  0.393005289
     0.652331463  0.125000000  0.393005289
     0.250000000  0.250000000  0.458199933
     0.250000000  0.250000000  0.541800067
     0.597668537  0.125000000  0.500000000
     0.402331463  0.125000000  0.500000000
     0.499922383  0.250727302  0.565366798
     0.500511047  0.249219655  0.648633653
     0.349477086  0.125051159  0.607245742
     0.650571277  0.124920803  0.607163018
     0.248734487  0.249585480  0.672214989
     0.250750291  0.250538940  0.756023461
     0.593492614  0.124559749  0.719160998
     0.406651566  0.124903462  0.719196823
     0.250000000  0.500000000  0.244210511
     0.250000000  0.500000000  0.327810646
     0.597668537  0.375000000  0.286010579
     0.402331463  0.375000000  0.286010579
     0.500000000  0.500000000  0.351205222
     0.500000000  0.500000000  0.434805357
     0.347668537  0.375000000  0.393005289
     0.652331463  0.375000000  0.393005289
     0.250000000  0.500000000  0.458199933
     0.250000000  0.500000000  0.541800067
     0.597668537  0.375000000  0.500000000
     0.402331463  0.375000000  0.500000000
     0.499892536  0.500000012  0.565598994
     0.500286247  0.499999992  0.649856876
     0.349347762  0.375021319  0.607543282
     0.650613770  0.375056610  0.607397406
     0.247970785  0.499999999  0.672135210
     0.253701449  0.500000003  0.755880908
     0.593293172  0.374110485  0.718836949
     0.405624262  0.372989207  0.717444230

  ion indices of the primitive-cell ions
   primitive index   ion index
                 1           1
                 2           2
                 3           3
                 4           4
                 5           5
                 6           6
                 7           7
                 8           8
                 9           9
                10          10
                11          11
                12          12
                13          13
                14          14
                15          15
                16          16
                17          17
                18          18
                19          19
                20          20
                21          21
                22          22
                23          23
                24          24
                25          25
                26          26
                27          27
                28          28
                29          29
                30          30
                31          31
                32          32
                33          33
                34          34
                35          35
                36          36
                37          37
                38          38
                39          39
                40          40
                41          41
                42          42
                43          43
                44          44
                45          45
                46          46
                47          47
                48          48
                49          49
                50          50
                51          51
                52          52
                53          53
                54          54
                55          55
                56          56
                57          57
                58          58
                59          59
                60          60
                61          61
                62          62
                63          63
                64          64
                65          65
                66          66
                67          67
                68          68
                69          69
                70          70
                71          71
                72          72
                73          73
                74          74
                75          75
                76          76
                77          77
                78          78
                79          79
                80          80
                81          81
                82          82
                83          83
                84          84
                85          85
                86          86
                87          87
                88          88
                89          89
                90          90
                91          91
                92          92
                93          93
                94          94
                95          95
                96          96
                97          97
                98          98
                99          99
               100         100
               101         101
               102         102
               103         103
               104         104
               105         105
               106         106
               107         107
               108         108
               109         109
               110         110
               111         111
               112         112
               113         113
               114         114
               115         115
               116         116
               117         117
               118         118
               119         119
               120         120
               121         121
               122         122
               123         123
               124         124
               125         125
               126         126
               127         127
               128         128
               129         129
               130         130
               131         131
               132         132
               133         133
               134         134
               135         135
               136         136
               137         137
               138         138
               139         139
               140         140
               141         141
               142         142
               143         143
               144         144
               145         145
               146         146
               147         147
               148         148
               149         149
               150         150
               151         151
               152         152
               153         153
               154         154
               155         155
               156         156
               157         157
               158         158
               159         159
               160         160
               161         161
               162         162
               163         163
               164         164
               165         165
               166         166
               167         167
               168         168
               169         169
               170         170
               171         171
               172         172
               173         173
               174         174
               175         175
               176         176
               177         177
               178         178
               179         179
               180         180
               181         181
               182         182
               183         183
               184         184
               185         185
               186         186
               187         187
               188         188
               189         189
               190         190
               191         191
               192         192
               193         193
               194         194
               195         195
               196         196
               197         197
               198         198
               199         199
               200         200
               201         201
               202         202
               203         203
               204         204
               205         205
               206         206
               207         207
               208         208
               209         209
               210         210
               211         211
               212         212
               213         213
               214         214
               215         215
               216         216
               217         217
               218         218
               219         219
               220         220
               221         221
               222         222
               223         223
               224         224
               225         225
               226         226
               227         227
               228         228
               229         229
               230         230
               231         231
               232         232
               233         233
               234         234
               235         235
               236         236
               237         237
               238         238
               239         239
               240         240

----------------------------------------------------------------------------------------

 
 
 KPOINTS: pymatgen v2020.8.13 with grid density = 

Automatic generation of k-mesh.
 Grid dimensions read from file:
 generate k-points for:    2    2    1

 Generating k-lattice:

  Cartesian coordinates                     Fractional coordinates (reciprocal lattice)
     0.038040901  0.000000000  0.000000000     0.500000000  0.000000000  0.000000000
     0.000000000  0.041305606  0.000000000     0.000000000  0.500000000  0.000000000
     0.000000000  0.000000000  0.032561401     0.000000000  0.000000000  1.000000000

  Length of vectors
     0.038040901  0.041305606  0.032561401

  Shift w.r.t. Gamma in fractional coordinates (k-lattice)
     0.000000000  0.000000000  0.000000000

 
 Subroutine IBZKPT returns following result:
 ===========================================
 
 Found      4 irreducible k-points:
 
 Following reciprocal coordinates:
            Coordinates               Weight
  0.000000  0.000000  0.000000      1.000000
  0.500000  0.000000  0.000000      1.000000
  0.000000  0.500000  0.000000      1.000000
  0.500000  0.500000  0.000000      1.000000
 
 Following cartesian coordinates:
            Coordinates               Weight
  0.000000  0.000000  0.000000      1.000000
  0.038041  0.000000  0.000000      1.000000
  0.000000  0.041306  0.000000      1.000000
  0.038041  0.041306  0.000000      1.000000
 


--------------------------------------------------------------------------------------------------------




 Dimension of arrays:
   k-points           NKPTS =      4   k-points in BZ     NKDIM =      4   number of bands    NBANDS=   1064
   number of dos      NEDOS =    301   number of ions     NIONS =    240
   non local maximal  LDIM  =      6   non local SUM 2l+1 LMDIM =     18
   total plane-waves  NPLWV = ******
   max r-space proj   IRMAX =      1   max aug-charges    IRDMAX=  21221
   dimension x,y,z NGX =   108 NGY =   98 NGZ =  250
   dimension x,y,z NGXF=   216 NGYF=  196 NGZF=  500
   support grid    NGXF=   216 NGYF=  196 NGZF=  500
   ions per type =              80 160
   NGX,Y,Z   is equivalent  to a cutoff of  13.66, 13.46, 13.53 a.u.
   NGXF,Y,Z  is equivalent  to a cutoff of  27.32, 26.92, 27.07 a.u.

 SYSTEM =  TiO2                                    
 POSCAR =  Ti  O                                   

--------------------------------------------------------------------------------------------------------


  energy-cutoff  :      600.00
  volume of cell :     4886.27
      direct lattice vectors                 reciprocal lattice vectors
    13.143747607  0.000000000  0.000000000     0.076081802  0.000000000  0.000000000
     0.000000000 12.104894358  0.000000000     0.000000000  0.082611212  0.000000000
     0.000000000  0.000000000 30.711208800     0.000000000  0.000000000  0.032561401

  length of vectors
    13.143747607 12.104894358 30.711208800     0.076081802  0.082611212  0.032561401


 
 k-points in units of 2pi/SCALE and weight: pymatgen v2020.8.13 with grid density = 
   0.00000000  0.00000000  0.00000000       0.250
   0.03804090  0.00000000  0.00000000       0.250
   0.00000000  0.04130561  0.00000000       0.250
   0.03804090  0.04130561  0.00000000       0.250
 
 k-points in reciprocal lattice and weights: pymatgen v2020.8.13 with grid density = 
   0.00000000  0.00000000  0.00000000       0.250
   0.50000000  0.00000000  0.00000000       0.250
   0.00000000  0.50000000  0.00000000       0.250
   0.50000000  0.50000000  0.00000000       0.250
 
 position of ions in fractional coordinates (direct lattice) 
   0.75000000  0.62500000  0.28601058
   0.00000000  0.75000000  0.28601058
   0.00000000  0.62500000  0.39300529
   0.75000000  0.75000000  0.39300529
   0.75000000  0.62500000  0.50000000
   0.00000000  0.75000000  0.50000000
   0.99994049  0.62502478  0.60509083
   0.74998936  0.74998965  0.60983636
   0.74976458  0.62506035  0.72002390
   0.00006284  0.75003731  0.70977423
   0.75000000  0.87500000  0.28601058
   0.00000000  0.00000000  0.28601058
   0.00000000  0.87500000  0.39300529
   0.75000000  0.00000000  0.39300529
   0.75000000  0.87500000  0.50000000
   0.00000000  0.00000000  0.50000000
   0.99999571  0.87502293  0.60514020
   0.75005500  0.99999999  0.60984115
   0.74997572  0.87505196  0.72005121
   0.00011212  0.99999999  0.70978667
   0.75000000  0.12500000  0.28601058
   0.00000000  0.25000000  0.28601058
   0.00000000  0.12500000  0.39300529
   0.75000000  0.25000000  0.39300529
   0.75000000  0.12500000  0.50000000
   0.00000000  0.25000000  0.50000000
   0.99999569  0.12497708  0.60514020
   0.74998933  0.25001034  0.60983636
   0.74997573  0.12494802  0.72005121
   0.00006284  0.24996268  0.70977423
   0.75000000  0.37500000  0.28601058
   0.00000000  0.50000000  0.28601058
   0.00000000  0.37500000  0.39300529
   0.75000000  0.50000000  0.39300529
   0.75000000  0.37500000  0.50000000
   0.00000000  0.50000000  0.50000000
   0.99994048  0.37497523  0.60509083
   0.75001772  0.49999999  0.60990498
   0.74976459  0.37493963  0.72002390
   0.99959647  0.49999999  0.70973871
   0.25000000  0.62500000  0.28601058
   0.50000000  0.75000000  0.28601058
   0.50000000  0.62500000  0.39300529
   0.25000000  0.75000000  0.39300529
   0.25000000  0.62500000  0.50000000
   0.50000000  0.75000000  0.50000000
   0.50002465  0.62414882  0.60572962
   0.24991426  0.75003793  0.60970573
   0.24962777  0.62537517  0.71949789
   0.50029874  0.75030830  0.70919076
   0.25000000  0.87500000  0.28601058
   0.50000000  0.00000000  0.28601058
   0.50000000  0.87500000  0.39300529
   0.25000000  0.00000000  0.39300529
   0.25000000  0.87500000  0.50000000
   0.50000000  0.00000000  0.50000000
   0.50009518  0.87470934  0.60471873
   0.25007778  0.00000000  0.60985034
   0.25018312  0.87507078  0.72009661
   0.49998093  0.99999999  0.70932442
   0.25000000  0.12500000  0.28601058
   0.50000000  0.25000000  0.28601058
   0.50000000  0.12500000  0.39300529
   0.25000000  0.25000000  0.39300529
   0.25000000  0.12500000  0.50000000
   0.50000000  0.25000000  0.50000000
   0.50009518  0.12529065  0.60471873
   0.24991424  0.24996205  0.60970572
   0.25018313  0.12492921  0.72009660
   0.50029875  0.24969168  0.70919075
   0.25000000  0.37500000  0.28601058
   0.50000000  0.50000000  0.28601058
   0.50000000  0.37500000  0.39300529
   0.25000000  0.50000000  0.39300529
   0.25000000  0.37500000  0.50000000
   0.50000000  0.50000000  0.50000000
   0.50002464  0.37585119  0.60572960
   0.24979172  0.50000000  0.60970702
   0.24962778  0.37462482  0.71949790
   0.49921714  0.49999999  0.71182308
   0.75000000  0.75000000  0.24421051
   0.75000000  0.75000000  0.32781065
   0.09766854  0.62500000  0.28601058
   0.90233146  0.62500000  0.28601058
   0.00000000  0.75000000  0.35120522
   0.00000000  0.75000000  0.43480536
   0.84766854  0.62500000  0.39300529
   0.15233146  0.62500000  0.39300529
   0.75000000  0.75000000  0.45819993
   0.75000000  0.75000000  0.54180007
   0.09766854  0.62500000  0.50000000
   0.90233146  0.62500000  0.50000000
   0.99994470  0.75007481  0.56538259
   0.00023920  0.74992706  0.64907962
   0.84966978  0.62505811  0.60727396
   0.15029132  0.62511314  0.60707733
   0.75026503  0.75012961  0.67226728
   0.74977335  0.75001103  0.75608513
   0.09326299  0.62470464  0.71975622
   0.90661933  0.62510539  0.71945018
   0.75000000  0.00000000  0.24421051
   0.75000000  0.00000000  0.32781065
   0.09766854  0.87500000  0.28601058
   0.90233146  0.87500000  0.28601058
   0.00000000  0.00000000  0.35120522
   0.00000000  0.00000000  0.43480536
   0.84766854  0.87500000  0.39300529
   0.15233146  0.87500000  0.39300529
   0.75000000  0.00000000  0.45819993
   0.75000000  0.00000000  0.54180007
   0.09766854  0.87500000  0.50000000
   0.90233146  0.87500000  0.50000000
   0.99993310  0.00000000  0.56539708
   0.00016738  1.00000000  0.64908713
   0.84969977  0.87498343  0.60731214
   0.15038556  0.87515027  0.60721976
   0.75027935  0.99999999  0.67227096
   0.75032130  0.99999999  0.75609150
   0.09341252  0.87496906  0.71959419
   0.90680750  0.87492303  0.71939441
   0.75000000  0.25000000  0.24421051
   0.75000000  0.25000000  0.32781065
   0.09766854  0.12500000  0.28601058
   0.90233146  0.12500000  0.28601058
   0.00000000  0.25000000  0.35120522
   0.00000000  0.25000000  0.43480536
   0.84766854  0.12500000  0.39300529
   0.15233146  0.12500000  0.39300529
   0.75000000  0.25000000  0.45819993
   0.75000000  0.25000000  0.54180007
   0.09766854  0.12500000  0.50000000
   0.90233146  0.12500000  0.50000000
   0.99994470  0.24992519  0.56538259
   0.00023919  0.25007294  0.64907963
   0.84969976  0.12501656  0.60731214
   0.15038555  0.12484971  0.60721976
   0.75026501  0.24987037  0.67226728
   0.74977335  0.24998895  0.75608512
   0.09341252  0.12503094  0.71959419
   0.90680750  0.12507696  0.71939440
   0.75000000  0.50000000  0.24421051
   0.75000000  0.50000000  0.32781065
   0.09766854  0.37500000  0.28601058
   0.90233146  0.37500000  0.28601058
   0.00000000  0.50000000  0.35120522
   0.00000000  0.50000000  0.43480536
   0.84766854  0.37500000  0.39300529
   0.15233146  0.37500000  0.39300529
   0.75000000  0.50000000  0.45819993
   0.75000000  0.50000000  0.54180007
   0.09766854  0.37500000  0.50000000
   0.90233146  0.37500000  0.50000000
   0.99991283  0.50000000  0.56536771
   0.00010207  0.50000000  0.64904905
   0.84966978  0.37494188  0.60727396
   0.15029131  0.37488687  0.60707732
   0.75061764  0.50000000  0.67231021
   0.74940842  0.49999999  0.75604389
   0.09326299  0.37529535  0.71975622
   0.90661933  0.37489460  0.71945018
   0.25000000  0.75000000  0.24421051
   0.25000000  0.75000000  0.32781065
   0.59766854  0.62500000  0.28601058
   0.40233146  0.62500000  0.28601058
   0.50000000  0.75000000  0.35120522
   0.50000000  0.75000000  0.43480536
   0.34766854  0.62500000  0.39300529
   0.65233146  0.62500000  0.39300529
   0.25000000  0.75000000  0.45819993
   0.25000000  0.75000000  0.54180007
   0.59766854  0.62500000  0.50000000
   0.40233146  0.62500000  0.50000000
   0.49992239  0.74927269  0.56536680
   0.50051105  0.75078037  0.64863366
   0.34934777  0.62497868  0.60754329
   0.65061378  0.62494339  0.60739741
   0.24873448  0.75041452  0.67221499
   0.25075028  0.74946104  0.75602346
   0.59329316  0.62588950  0.71883695
   0.40562425  0.62701077  0.71744423
   0.25000000  0.00000000  0.24421051
   0.25000000  0.00000000  0.32781065
   0.59766854  0.87500000  0.28601058
   0.40233146  0.87500000  0.28601058
   0.50000000  0.00000000  0.35120522
   0.50000000  0.00000000  0.43480536
   0.34766854  0.87500000  0.39300529
   0.65233146  0.87500000  0.39300529
   0.25000000  0.00000000  0.45819993
   0.25000000  0.00000000  0.54180007
   0.59766854  0.87500000  0.50000000
   0.40233146  0.87500000  0.50000000
   0.49996809  0.00000000  0.56515377
   0.49994710  0.99999999  0.64868157
   0.34947709  0.87494884  0.60724574
   0.65057128  0.87507918  0.60716302
   0.24992907  0.99999999  0.67237036
   0.25009512  0.00000000  0.75616437
   0.59349261  0.87544023  0.71916100
   0.40665157  0.87509653  0.71919684
   0.25000000  0.25000000  0.24421051
   0.25000000  0.25000000  0.32781065
   0.59766854  0.12500000  0.28601058
   0.40233146  0.12500000  0.28601058
   0.50000000  0.25000000  0.35120522
   0.50000000  0.25000000  0.43480536
   0.34766854  0.12500000  0.39300529
   0.65233146  0.12500000  0.39300529
   0.25000000  0.25000000  0.45819993
   0.25000000  0.25000000  0.54180007
   0.59766854  0.12500000  0.50000000
   0.40233146  0.12500000  0.50000000
   0.49992238  0.25072730  0.56536680
   0.50051105  0.24921965  0.64863365
   0.34947709  0.12505116  0.60724574
   0.65057128  0.12492080  0.60716302
   0.24873449  0.24958548  0.67221499
   0.25075029  0.25053894  0.75602346
   0.59349261  0.12455975  0.71916100
   0.40665157  0.12490346  0.71919682
   0.25000000  0.50000000  0.24421051
   0.25000000  0.50000000  0.32781065
   0.59766854  0.37500000  0.28601058
   0.40233146  0.37500000  0.28601058
   0.50000000  0.50000000  0.35120522
   0.50000000  0.50000000  0.43480536
   0.34766854  0.37500000  0.39300529
   0.65233146  0.37500000  0.39300529
   0.25000000  0.50000000  0.45819993
   0.25000000  0.50000000  0.54180007
   0.59766854  0.37500000  0.50000000
   0.40233146  0.37500000  0.50000000
   0.49989254  0.50000001  0.56559899
   0.50028625  0.49999999  0.64985688
   0.34934776  0.37502132  0.60754328
   0.65061377  0.37505661  0.60739741
   0.24797079  0.50000000  0.67213521
   0.25370145  0.50000000  0.75588091
   0.59329317  0.37411048  0.71883695
   0.40562426  0.37298921  0.71744423
 
 position of ions in cartesian coordinates  (Angst):
   9.85781071  7.56555897  8.78373060
   0.00000000  9.07867077  8.78373060
   0.00000000  7.56555897 12.06966750
   9.85781071  9.07867077 12.06966750
   9.85781071  7.56555897 15.35560440
   0.00000000  9.07867077 15.35560440
  13.14296539  7.56585897 18.58307088
   9.85767080  9.07854546 18.72881184
   9.85471643  7.56628946 22.11280421
   0.00082589  9.07912245 21.79802459
   9.85781071 10.59178256  8.78373060
   0.00000000  0.00000000  8.78373060
   0.00000000 10.59178256 12.06966750
   9.85781071  0.00000000 12.06966750
   9.85781071 10.59178256 15.35560440
   0.00000000  0.00000000 15.35560440
  13.14369116 10.59206013 18.58458704
   9.85853367 12.10489425 18.72895886
   9.85749159 10.59241147 22.11364315
   0.00147368 12.10489429 21.79840651
   9.85781071  1.51311179  8.78373060
   0.00000000  3.02622359  8.78373060
   0.00000000  1.51311179 12.06966750
   9.85781071  3.02622359 12.06966750
   9.85781071  1.51311179 15.35560440
   0.00000000  3.02622359 15.35560440
  13.14369092  1.51283431 18.58458710
   9.85767047  3.02634873 18.72881186
   9.85749165  1.51248263 22.11364309
   0.00082591  3.02577179 21.79802457
   9.85781071  4.53933538  8.78373060
   0.00000000  6.05244718  8.78373060
   0.00000000  4.53933538 12.06966750
   9.85781071  6.05244718 12.06966750
   9.85781071  4.53933538 15.35560440
   0.00000000  6.05244718 15.35560440
  13.14296532  4.53903552 18.58307082
   9.85804358  6.05244706 18.73091926
   9.85471651  4.53860465 22.11280426
  13.13844376  6.05244712 21.79693357
   3.28593690  7.56555897  8.78373060
   6.57187380  9.07867077  8.78373060
   6.57187380  7.56555897 12.06966750
   3.28593690  9.07867077 12.06966750
   3.28593690  7.56555897 15.35560440
   6.57187380  9.07867077 15.35560440
   6.57219786  7.55525558 18.60268873
   3.28480990  9.07912993 18.72479992
   3.28104443  7.57010041 22.09664994
   6.57580036  9.08240270 21.78010545
   3.28593690 10.59178256  8.78373060
   6.57187380  0.00000000  8.78373060
   6.57187380 10.59178256 12.06966750
   3.28593690  0.00000000 12.06966750
   3.28593690 10.59178256 15.35560440
   6.57187380  0.00000000 15.35560440
   6.57312481 10.58826421 18.57164320
   3.28695925  0.00000002 18.72924123
   3.28834384 10.59263937 22.11503737
   6.57162310 12.10489422 21.78421039
   3.28593690  1.51311179  8.78373060
   6.57187380  3.02622359  8.78373060
   6.57187380  1.51311179 12.06966750
   3.28593690  3.02622359 12.06966750
   3.28593690  1.51311179 15.35560440
   6.57187380  3.02622359 15.35560440
   6.57312478  1.51663013 18.57164329
   3.28480975  3.02576424 18.72479981
   3.28834387  1.51225494 22.11503714
   6.57580046  3.02249145 21.78010519
   3.28593690  4.53933538  8.78373060
   6.57187380  6.05244718  8.78373060
   6.57187380  4.53933538 12.06966750
   3.28593690  6.05244718 12.06966750
   3.28593690  4.53933538 15.35560440
   6.57187380  6.05244718 15.35560440
   6.57219767  4.54963894 18.60268829
   3.28319928  6.05244715 18.72483958
   3.28104447  4.53479384 22.09665010
   6.56158412  6.05244711 21.86094726
   9.85781071  9.07867077  7.50000000
   9.85781071  9.07867077 10.06746119
   1.28373060  7.56555897  8.78373060
  11.86001701  7.56555897  8.78373060
   0.00000000  9.07867077 10.78593690
   0.00000000  9.07867077 13.35339810
  11.14154130  7.56555897 12.06966750
   2.00220631  7.56555897 12.06966750
   9.85781071  9.07867077 14.07187380
   9.85781071  9.07867077 16.63933500
   1.28373060  7.56555897 15.35560440
  11.86001701  7.56555897 15.35560440
  13.14302080  9.07957636 17.36358289
   0.00314395  9.07778785 19.93401988
  11.16784519  7.56626238 18.65011724
   1.97539111  7.56692847 18.64407852
   9.86129414  9.08023968 20.64614087
   9.85483171  9.07880429 23.22028823
   1.22582521  7.56198368 22.10458363
  11.91637562  7.56683474 22.09518482
   9.85781071  0.00000000  7.50000000
   9.85781071  0.00000000 10.06746119
   1.28373060 10.59178256  8.78373060
  11.86001701 10.59178256  8.78373060
   0.00000000  0.00000000 10.78593690
   0.00000000  0.00000000 13.35339810
  11.14154130 10.59178256 12.06966750
   2.00220631 10.59178256 12.06966750
   9.85781071  0.00000000 14.07187380
   9.85781071  0.00000000 16.63933500
   1.28373060 10.59178256 15.35560440
  11.86001701 10.59178256 15.35560440
  13.14286823  0.00000005 17.36402784
   0.00220000 12.10489432 19.93425052
  11.16823927 10.59158199 18.65128982
   1.97662983 10.59360156 18.64845269
   9.86148235 12.10489426 20.64625383
   9.86203375 12.10489425 23.22048390
   1.22779059 10.59140802 22.09960742
  11.91884892 10.59085081 22.09347180
   9.85781071  3.02622359  7.50000000
   9.85781071  3.02622359 10.06746119
   1.28373060  1.51311179  8.78373060
  11.86001701  1.51311179  8.78373060
   0.00000000  3.02622359 10.78593690
   0.00000000  3.02622359 13.35339810
  11.14154130  1.51311179 12.06966750
   2.00220631  1.51311179 12.06966750
   9.85781071  3.02622359 14.07187380
   9.85781071  3.02622359 16.63933500
   1.28373060  1.51311179 15.35560440
  11.86001701  1.51311179 15.35560440
  13.14302073  3.02531808 17.36358289
   0.00314386  3.02710658 19.93401994
  11.16823912  1.51331224 18.65128982
   1.97662967  1.51129261 18.64845273
   9.86129397  3.02465442 20.64614086
   9.85483171  3.02608978 23.22028813
   1.22779055  1.51348627 22.09960734
  11.91884893  1.51404340 22.09347174
   9.85781071  6.05244718  7.50000000
   9.85781071  6.05244718 10.06746119
   1.28373060  4.53933538  8.78373060
  11.86001701  4.53933538  8.78373060
   0.00000000  6.05244718 10.78593690
   0.00000000  6.05244718 13.35339810
  11.14154130  4.53933538 12.06966750
   2.00220631  4.53933538 12.06966750
   9.85781071  6.05244718 14.07187380
   9.85781071  6.05244718 16.63933500
   1.28373060  4.53933538 15.35560440
  11.86001701  4.53933538 15.35560440
  13.14260186  6.05244721 17.36312566
   0.00134152  6.05244720 19.93308084
  11.16784512  4.53863183 18.65011727
   1.97539099  4.53796594 18.64407846
   9.86592875  6.05244713 20.64745909
   9.85003518  6.05244709 23.21902184
   1.22582522  4.54291058 22.10458369
  11.91637565  4.53805949 22.09518481
   3.28593690  9.07867077  7.50000000
   3.28593690  9.07867077 10.06746119
   7.85560440  7.56555897  8.78373060
   5.28814321  7.56555897  8.78373060
   6.57187380  9.07867077 10.78593690
   6.57187380  9.07867077 13.35339810
   4.56966750  7.56555897 12.06966750
   8.57408011  7.56555897 12.06966750
   3.28593690  9.07867077 14.07187380
   3.28593690  9.07867077 16.63933500
   7.85560440  7.56555897 15.35560440
   5.28814321  7.56555897 15.35560440
   6.57085372  9.06986679 17.36309790
   6.57859087  9.08811702 19.92032388
   4.59173892  7.56530085 18.65838870
   8.55150330  7.56487368 18.65390870
   3.26930325  9.08368847 20.64453494
   3.29579837  9.07214677 23.21839433
   7.79809562  7.57632625 22.07635176
   5.33142278  7.58989911 22.03357944
   3.28593690  0.00000000  7.50000000
   3.28593690  0.00000000 10.06746119
   7.85560440 10.59178256  8.78373060
   5.28814321 10.59178256  8.78373060
   6.57187380  0.00000000 10.78593690
   6.57187380  0.00000000 13.35339810
   4.56966750 10.59178256 12.06966750
   8.57408011 10.59178256 12.06966750
   3.28593690  0.00000000 14.07187380
   3.28593690  0.00000000 16.63933500
   7.85560440 10.59178256 15.35560440
   5.28814321 10.59178256 15.35560440
   6.57145433  0.00000002 17.35655554
   6.57117847 12.10489428 19.92179502
   4.59343869 10.59116325 18.64925070
   8.55094475 10.59274105 18.64671015
   3.28500462 12.10489420 20.64930637
   3.28718717  0.00000001 23.22272185
   7.80071709 10.59711149 22.08630355
   5.34492554 10.59295102 22.08740436
   3.28593690  3.02622359  7.50000000
   3.28593690  3.02622359 10.06746119
   7.85560440  1.51311179  8.78373060
   5.28814321  1.51311179  8.78373060
   6.57187380  3.02622359 10.78593690
   6.57187380  3.02622359 13.35339810
   4.56966750  1.51311179 12.06966750
   8.57408011  1.51311179 12.06966750
   3.28593690  3.02622359 14.07187380
   3.28593690  3.02622359 16.63933500
   7.85560440  1.51311179 15.35560440
   5.28814321  1.51311179 15.35560440
   6.57085363  3.03502751 17.36309779
   6.57859088  3.01677759 19.92032355
   4.59343861  1.51373107 18.64925076
   8.55094467  1.51215312 18.64671023
   3.26930332  3.02120587 20.64453490
   3.29579853  3.03274740 23.21839436
   7.80071713  1.50778260 22.08630356
   5.34492555  1.51194322 22.08740380
   3.28593690  6.05244718  7.50000000
   3.28593690  6.05244718 10.06746119
   7.85560440  4.53933538  8.78373060
   5.28814321  4.53933538  8.78373060
   6.57187380  6.05244718 10.78593690
   6.57187380  6.05244718 13.35339810
   4.56966750  4.53933538 12.06966750
   8.57408011  4.53933538 12.06966750
   3.28593690  6.05244718 14.07187380
   3.28593690  6.05244718 16.63933500
   7.85560440  4.53933538 15.35560440
   5.28814321  4.53933538 15.35560440
   6.57046133  6.05244733 17.37022879
   6.57563616  6.05244708 19.95789022
   4.59173882  4.53959345 18.65838858
   8.55150319  4.54002064 18.65390856
   3.25926541  6.05244716 20.64208479
   3.33458782  6.05244722 23.21401640
   7.79809571  4.52856789 22.07635163
   5.33142292  4.51499495 22.03357954
 


--------------------------------------------------------------------------------------------------------

--------------------------------------- Iteration      FINAL  ---------------------------------------


--------------------OUTCAR has been truncated-------------------------


--------------------OUTCAR has been truncated-------------------------


--------------------OUTCAR has been truncated-------------------------


--------------------OUTCAR has been truncated-------------------------


--------------------OUTCAR has been truncated-------------------------


--------------------OUTCAR has been truncated-------------------------


--------------------OUTCAR has been truncated-------------------------


--------------------OUTCAR has been truncated-------------------------


--------------------OUTCAR has been truncated-------------------------


--------------------OUTCAR has been truncated-------------------------


  Hirshfeld charges:
            ion         q(e)     
   ------------------------------
      1     Ti          0.751
      2     Ti          0.923
      3     Ti          0.818
      4     Ti          0.806
      5     Ti          0.804
      6     Ti          0.816
      7     Ti          0.820
      8     Ti          0.803
      9     Ti          0.789
     10     Ti          0.883
     11     Ti          0.751
     12     Ti          0.923
     13     Ti          0.818
     14     Ti          0.806
     15     Ti          0.804
     16     Ti          0.816
     17     Ti          0.820
     18     Ti          0.803
     19     Ti          0.789
     20     Ti          0.884
     21     Ti          0.751
     22     Ti          0.923
     23     Ti          0.818
     24     Ti          0.806
     25     Ti          0.804
     26     Ti          0.816
     27     Ti          0.820
     28     Ti          0.803
     29     Ti          0.789
     30     Ti          0.883
     31     Ti          0.751
     32     Ti          0.923
     33     Ti          0.818
     34     Ti          0.806
     35     Ti          0.804
     36     Ti          0.816
     37     Ti          0.820
     38     Ti          0.803
     39     Ti          0.789
     40     Ti          0.883
     41     Ti          0.751
     42     Ti          0.923
     43     Ti          0.818
     44     Ti          0.806
     45     Ti          0.805
     46     Ti          0.816
     47     Ti          0.820
     48     Ti          0.803
     49     Ti          0.786
     50     Ti          0.882
     51     Ti          0.751
     52     Ti          0.923
     53     Ti          0.818
     54     Ti          0.806
     55     Ti          0.805
     56     Ti          0.815
     57     Ti          0.820
     58     Ti          0.803
     59     Ti          0.789
     60     Ti          0.881
     61     Ti          0.751
     62     Ti          0.923
     63     Ti          0.818
     64     Ti          0.806
     65     Ti          0.805
     66     Ti          0.816
     67     Ti          0.820
     68     Ti          0.803
     69     Ti          0.789
     70     Ti          0.882
     71     Ti          0.751
     72     Ti          0.923
     73     Ti          0.818
     74     Ti          0.806
     75     Ti          0.805
     76     Ti          0.817
     77     Ti          0.820
     78     Ti          0.803
     79     Ti          0.786
     80     Ti          0.904
     81     O          -0.448
     82     O          -0.426
     83     O          -0.408
     84     O          -0.408
     85     O          -0.389
     86     O          -0.401
     87     O          -0.408
     88     O          -0.408
     89     O          -0.411
     90     O          -0.413
     91     O          -0.406
     92     O          -0.406
     93     O          -0.397
     94     O          -0.393
     95     O          -0.408
     96     O          -0.408
     97     O          -0.419
     98     O          -0.418
     99     O          -0.421
    100     O          -0.420
    101     O          -0.448
    102     O          -0.426
    103     O          -0.408
    104     O          -0.408
    105     O          -0.389
    106     O          -0.401
    107     O          -0.408
    108     O          -0.408
    109     O          -0.411
    110     O          -0.413
    111     O          -0.406
    112     O          -0.406
    113     O          -0.397
    114     O          -0.393
    115     O          -0.408
    116     O          -0.408
    117     O          -0.419
    118     O          -0.417
    119     O          -0.420
    120     O          -0.420
    121     O          -0.448
    122     O          -0.426
    123     O          -0.408
    124     O          -0.408
    125     O          -0.389
    126     O          -0.401
    127     O          -0.408
    128     O          -0.408
    129     O          -0.411
    130     O          -0.413
    131     O          -0.406
    132     O          -0.406
    133     O          -0.397
    134     O          -0.393
    135     O          -0.408
    136     O          -0.408
    137     O          -0.419
    138     O          -0.418
    139     O          -0.420
    140     O          -0.420
    141     O          -0.448
    142     O          -0.426
    143     O          -0.408
    144     O          -0.408
    145     O          -0.389
    146     O          -0.401
    147     O          -0.408
    148     O          -0.408
    149     O          -0.411
    150     O          -0.413
    151     O          -0.406
    152     O          -0.406
    153     O          -0.397
    154     O          -0.393
    155     O          -0.408
    156     O          -0.408
    157     O          -0.419
    158     O          -0.419
    159     O          -0.421
    160     O          -0.420
    161     O          -0.448
    162     O          -0.426
    163     O          -0.408
    164     O          -0.408
    165     O          -0.389
    166     O          -0.401
    167     O          -0.408
    168     O          -0.408
    169     O          -0.411
    170     O          -0.413
    171     O          -0.406
    172     O          -0.406
    173     O          -0.398
    174     O          -0.392
    175     O          -0.408
    176     O          -0.408
    177     O          -0.420
    178     O          -0.418
    179     O          -0.420
    180     O          -0.419
    181     O          -0.448
    182     O          -0.426
    183     O          -0.408
    184     O          -0.408
    185     O          -0.389
    186     O          -0.401
    187     O          -0.408
    188     O          -0.408
    189     O          -0.411
    190     O          -0.413
    191     O          -0.406
    192     O          -0.406
    193     O          -0.398
    194     O          -0.393
    195     O          -0.409
    196     O          -0.408
    197     O          -0.419
    198     O          -0.417
    199     O          -0.421
    200     O          -0.420
    201     O          -0.448
    202     O          -0.426
    203     O          -0.408
    204     O          -0.408
    205     O          -0.389
    206     O          -0.401
    207     O          -0.408
    208     O          -0.408
    209     O          -0.411
    210     O          -0.413
    211     O          -0.406
    212     O          -0.406
    213     O          -0.398
    214     O          -0.392
    215     O          -0.409
    216     O          -0.408
    217     O          -0.420
    218     O          -0.418
    219     O          -0.421
    220     O          -0.420
    221     O          -0.448
    222     O          -0.426
    223     O          -0.408
    224     O          -0.408
    225     O          -0.389
    226     O          -0.401
    227     O          -0.408
    228     O          -0.408
    229     O          -0.411
    230     O          -0.413
    231     O          -0.406
    232     O          -0.406
    233     O          -0.396
    234     O          -0.392
    235     O          -0.408
    236     O          -0.408
    237     O          -0.420
    238     O          -0.422
    239     O          -0.420
    240     O          -0.419

  Hirshfeld-I charges:
            ion         q(e)        dq(e)    
   ------------------------------------------
      1     Ti          2.197     -0.125E-04
      2     Ti          2.216     -0.265E-04
      3     Ti          2.272     -0.162E-04
[...]
      9.85749      1.51248     22.11364         0.027271     -0.024033      0.025735
      0.00083      3.02577     21.79802         0.034165      0.007543      0.033938
      9.85781      4.53934      8.78373        -0.000177     -0.000056     -3.243519
      0.00000      6.05245      8.78373        -0.000314      0.000023      2.638027
      0.00000      4.53934     12.06967        -0.001633      0.000055      0.486852
      9.85781      6.05245     12.06967        -0.000201      0.000005     -0.727886
      9.85781      4.53934     15.35560        -0.004855      0.004921      0.415839
      0.00000      6.05245     15.35560        -0.005856     -0.000002     -0.518854
     13.14297      4.53904     18.58307         0.017622      0.001518      0.022242
      9.85804      6.05245     18.73092         0.033260     -0.000001     -0.015542
      9.85472      4.53860     22.11280         0.134199     -0.042519      0.014827
     13.13844      6.05245     21.79693         0.049858      0.000004      0.039316
      3.28594      7.56556      8.78373         0.000175      0.000224     -3.244313
      6.57187      9.07867      8.78373         0.000292      0.000315      2.638649
      6.57187      7.56556     12.06967         0.001552      0.006831      0.487168
      3.28594      9.07867     12.06967         0.000816      0.000951     -0.733146
      3.28594      7.56556     15.35560         0.005544      0.001904      0.394354
      6.57187      9.07867     15.35560         0.002889     -0.018053     -0.480004
      6.57220      7.55526     18.60269        -0.016723      0.090657     -0.077444
      3.28481      9.07913     18.72480        -0.023238      0.013343      0.042099
      3.28104      7.57010     22.09665        -0.086613     -0.147422      0.227836
      6.57580      9.08240     21.78011        -0.048236      0.204511      0.024271
      3.28594     10.59178      8.78373         0.000356      0.000241     -3.244095
      6.57187      0.00000      8.78373         0.000258      0.000015      2.639154
      6.57187     10.59178     12.06967         0.001279      0.002414      0.491189
      3.28594      0.00000     12.06967         0.001329     -0.000000     -0.731993
      3.28594     10.59178     15.35560         0.002611      0.016155      0.407024
      6.57187      0.00000     15.35560         0.001403     -0.000008     -0.571937
      6.57312     10.58826     18.57164        -0.013517      0.033916     -0.007907
      3.28696      0.00000     18.72924        -0.013204      0.000002      0.040450
      3.28834     10.59264     22.11504        -0.026073     -0.042473      0.080147
      6.57162     12.10489     21.78421        -0.023178     -0.000004      0.033376
      3.28594      1.51311      8.78373         0.000343     -0.000232     -3.244090
      6.57187      3.02622      8.78373         0.000288     -0.000324      2.638648
      6.57187      1.51311     12.06967         0.001278     -0.002419      0.491193
      3.28594      3.02622     12.06967         0.000819     -0.000956     -0.733150
      3.28594      1.51311     15.35560         0.002606     -0.016149      0.407030
      6.57187      3.02622     15.35560         0.002889      0.018054     -0.480001
      6.57312      1.51663     18.57164        -0.013526     -0.033915     -0.007907
      3.28481      3.02576     18.72480        -0.023242     -0.013347      0.042105
      3.28834      1.51225     22.11504        -0.026086      0.042474      0.080161
      6.57580      3.02249     21.78011        -0.048254     -0.204546      0.024271
      3.28594      4.53934      8.78373         0.000169     -0.000244     -3.244336
      6.57187      6.05245      8.78373         0.000313     -0.000027      2.638096
      6.57187      4.53934     12.06967         0.001538     -0.006831      0.487169
      3.28594      6.05245     12.06967         0.000269     -0.000004     -0.734037
      3.28594      4.53934     15.35560         0.005539     -0.001909      0.394354
      6.57187      6.05245     15.35560         0.004600      0.000010     -0.489066
      6.57220      4.54964     18.60269        -0.016714     -0.090661     -0.077453
      3.28320      6.05245     18.72484        -0.032956      0.000010      0.051017
      3.28104      4.53479     22.09665        -0.086597      0.147437      0.227842
      6.56158      6.05245     21.86095        -0.078136     -0.000008     -0.987927
      9.85781      9.07867      7.50000         0.000057     -0.000065      1.783869
      9.85781      9.07867     10.06746         0.000100     -0.000084      1.641642
      1.28373      7.56556      8.78373        -1.855642     -0.000008     -0.750304
     11.86002      7.56556      8.78373         1.856071     -0.000006     -0.750360
      0.00000      9.07867     10.78594         0.000192     -0.000014     -1.174470
      0.00000      9.07867     13.35340         0.000440     -0.000023     -0.161986
     11.14154      7.56556     12.06967         0.401379     -0.000001      0.059477
      2.00221      7.56556     12.06967        -0.399739     -0.000240      0.060202
      9.85781      9.07867     14.07187         0.000449      0.000509     -0.008619
      9.85781      9.07867     16.63933         0.001543     -0.002862      0.142633
      1.28373      7.56556     15.35560        -0.327276      0.000102      0.058115
     11.86002      7.56556     15.35560         0.335487      0.001109      0.055655
     13.14302      9.07958     17.36358        -0.001732     -0.000697     -0.010589
      0.00314      9.07779     19.93402        -0.004228      0.001341     -0.025485
     11.16785      7.56626     18.65012        -0.018767     -0.003226      0.000517
      1.97539      7.56693     18.64408        -0.000263     -0.000155     -0.006428
      9.86129      9.08024     20.64614        -0.017292     -0.015406      0.000107
      9.85483      9.07880     23.22029        -0.011501     -0.031068     -0.028762
      1.22583      7.56198     22.10458        -0.041383      0.009526     -0.022499
     11.91638      7.56683     22.09518        -0.040592     -0.001501     -0.007310
      9.85781      0.00000      7.50000         0.000075      0.000013      1.783858
      9.85781      0.00000     10.06746         0.000168      0.000001      1.641586
      1.28373     10.59178      8.78373        -1.855703     -0.000031     -0.750317
     11.86002     10.59178      8.78373         1.856093     -0.000017     -0.750355
      0.00000      0.00000     10.78594         0.000176      0.000002     -1.174422
      0.00000      0.00000     13.35340         0.000353     -0.000004     -0.161398
     11.14154     10.59178     12.06967         0.401421     -0.000069      0.059564
      2.00221     10.59178     12.06967        -0.400027     -0.000319      0.060134
      9.85781      0.00000     14.07187         0.000054     -0.000006     -0.008118
      9.85781      0.00000     16.63933         0.007449     -0.000003      0.131921
      1.28373     10.59178     15.35560        -0.329955     -0.000623      0.056828
     11.86002     10.59178     15.35560         0.334069      0.000296      0.054936
     13.14287      0.00000     17.36403        -0.001586      0.000003     -0.012959
      0.00220     12.10489     19.93425        -0.002752     -0.000002     -0.022395
     11.16824     10.59158     18.65129        -0.014827     -0.003406     -0.001787
      1.97663     10.59360     18.64845        -0.000774     -0.001522     -0.007173
      9.86148     12.10489     20.64625        -0.006596     -0.000006     -0.011497
      9.86203     12.10489     23.22048        -0.007974     -0.000001     -0.023494
      1.22779     10.59141     22.09961        -0.020284      0.003506     -0.013457
     11.91885     10.59085     22.09347        -0.020838      0.001067     -0.006349
      9.85781      3.02622      7.50000         0.000063      0.000060      1.783864
      9.85781      3.02622     10.06746         0.000106      0.000085      1.641650
      1.28373      1.51311      8.78373        -1.855709      0.000029     -0.750315
     11.86002      1.51311      8.78373         1.856105      0.000019     -0.750355
      0.00000      3.02622     10.78594         0.000189      0.000013     -1.174482
      0.00000      3.02622     13.35340         0.000434      0.000024     -0.161973
     11.14154      1.51311     12.06967         0.401410      0.000070      0.059568
      2.00221      1.51311     12.06967        -0.400019      0.000316      0.060130
      9.85781      3.02622     14.07187         0.000455     -0.000501     -0.008619
      9.85781      3.02622     16.63933         0.001546      0.002871      0.142635
      1.28373      1.51311     15.35560        -0.329961      0.000627      0.056829
     11.86002      1.51311     15.35560         0.334074     -0.000297      0.054936
     13.14302      3.02532     17.36358        -0.001729      0.000693     -0.010593
      0.00314      3.02711     19.93402        -0.004218     -0.001346     -0.025479
     11.16824      1.51331     18.65129        -0.014826      0.003411     -0.001790
      1.97663      1.51129     18.64845        -0.000774      0.001525     -0.007175
      9.86129      3.02465     20.64614        -0.017297      0.015412      0.000093
      9.85483      3.02609     23.22029        -0.011503      0.031075     -0.028764
      1.22779      1.51349     22.09961        -0.020269     -0.003510     -0.013461
     11.91885      1.51404     22.09347        -0.020841     -0.001070     -0.006356
      9.85781      6.05245      7.50000         0.000044     -0.000003      1.783839
      9.85781      6.05245     10.06746         0.000066      0.000000      1.641595
      1.28373      4.53934      8.78373        -1.855642      0.000013     -0.750294
     11.86002      4.53934      8.78373         1.856084      0.000002     -0.750356
      0.00000      6.05245     10.78594         0.000207      0.000004     -1.174507
      0.00000      6.05245     13.35340         0.000484      0.000006     -0.162457
     11.14154      4.53934     12.06967         0.401375      0.000004      0.059482
      2.00221      4.53934     12.06967        -0.399737      0.000244      0.060200
      9.85781      6.05245     14.07187         0.001252     -0.000004     -0.009819
      9.85781      6.05245     16.63933        -0.000154     -0.000004      0.149503
      1.28373      4.53934     15.35560        -0.327278     -0.000107      0.058117
     11.86002      4.53934     15.35560         0.335488     -0.001108      0.055653
     13.14260      6.05245     17.36313        -0.002050      0.000001     -0.008676
      0.00134      6.05245     19.93308        -0.004160      0.000002     -0.029033
     11.16785      4.53863     18.65012        -0.018769      0.003228      0.000516
      1.97539      4.53797     18.64408        -0.000265      0.000149     -0.006429
      9.86593      6.05245     20.64746        -0.021882      0.000000      0.002236
      9.85004      6.05245     23.21902        -0.047586     -0.000001     -0.006828
      1.22583      4.54291     22.10458        -0.041377     -0.009526     -0.022504
     11.91638      4.53806     22.09518        -0.040595      0.001503     -0.007316
      3.28594      9.07867      7.50000        -0.000076     -0.000125      1.784152
      3.28594      9.07867     10.06746        -0.000119     -0.000191      1.642872
      7.85560      7.56556      8.78373        -1.855902     -0.000194     -0.750440
      5.28814      7.56556      8.78373         1.855440     -0.000198     -0.750381
      6.57187      9.07867     10.78594        -0.000195     -0.001353     -1.175848
      6.57187      9.07867     13.35340        -0.000492     -0.002398     -0.170461
      4.56967      7.56556     12.06967         0.399283     -0.000664      0.060103
      8.57408      7.56556     12.06967        -0.401007     -0.000423      0.059430
      3.28594      9.07867     14.07187        -0.000509     -0.003350     -0.001901
      3.28594      9.07867     16.63933         0.002446     -0.003867      0.131315
      7.85560      7.56556     15.35560        -0.332770     -0.017227      0.052653
      5.28814      7.56556     15.35560         0.322653     -0.017362      0.052015
      6.57085      9.06987     17.36310         0.002202     -0.025230      0.020021
      6.57859      9.08812     19.92032         0.003205     -0.027322      0.036220
      4.59174      7.56530     18.65839         0.049344     -0.005667      0.001632
      8.55150      7.56487     18.65391        -0.029369     -0.008057      0.007546
      3.26930      9.08369     20.64453         0.016985      0.008517     -0.061761
      3.29580      9.07215     23.21839        -0.013108      0.065697     -0.076896
      7.79810      7.57633     22.07635        -0.093136     -0.193605      0.171201
      5.33142      7.58990     22.03358         0.219997     -0.249693      0.197471
      3.28594      0.00000      7.50000        -0.000088     -0.000005      1.784107
      3.28594      0.00000     10.06746        -0.000191      0.000004      1.642445
      7.85560     10.59178      8.78373        -1.855788     -0.000182     -0.750447
      5.28814     10.59178      8.78373         1.855373     -0.000185     -0.750415
      6.57187      0.00000     10.78594        -0.000190      0.000003     -1.177051
      6.57187      0.00000     13.35340        -0.000327     -0.000001     -0.175838
      4.56967     10.59178     12.06967         0.397984     -0.000437      0.059834
      8.57408     10.59178     12.06967        -0.399452     -0.000197      0.059299
      3.28594      0.00000     14.07187        -0.000410     -0.000000     -0.004307
      3.28594      0.00000     16.63933         0.003585      0.000003      0.127882
      7.85560     10.59178     15.35560        -0.328697     -0.005600      0.058206
      5.28814     10.59178     15.35560         0.323697     -0.006046      0.057131
      6.57145      0.00000     17.35656         0.001858      0.000003      0.004801
      6.57118     12.10489     19.92180         0.004072      0.000001     -0.014754
      4.59344     10.59116     18.64925         0.023676     -0.003957     -0.005731
      8.55094     10.59274     18.64671        -0.007841     -0.006392     -0.000876
      3.28500     12.10489     20.64931         0.003781     -0.000002     -0.050018
      3.28719      0.00000     23.22272         0.005268      0.000001     -0.025736
      7.80072     10.59711     22.08630        -0.010474     -0.032283     -0.016623
      5.34493     10.59295     22.08740         0.050146     -0.025897     -0.030923
      3.28594      3.02622      7.50000        -0.000079      0.000138      1.784149
      3.28594      3.02622     10.06746        -0.000121      0.000185      1.642870
      7.85560      1.51311      8.78373        -1.855810      0.000186     -0.750450
      5.28814      1.51311      8.78373         1.855375      0.000189     -0.750414
      6.57187      3.02622     10.78594        -0.000196      0.001353     -1.175855
      6.57187      3.02622     13.35340        -0.000493      0.002401     -0.170474
      4.56967      1.51311     12.06967         0.397978      0.000433      0.059833
      8.57408      1.51311     12.06967        -0.399456      0.000202      0.059301
      3.28594      3.02622     14.07187        -0.000509      0.003356     -0.001898
      3.28594      3.02622     16.63933         0.002440      0.003868      0.131313
      7.85560      1.51311     15.35560        -0.328699      0.005597      0.058207
      5.28814      1.51311     15.35560         0.323700      0.006043      0.057131
      6.57085      3.03503     17.36310         0.002197      0.025234      0.020029
      6.57859      3.01678     19.92032         0.003204      0.027324      0.036216
      4.59344      1.51373     18.64925         0.023683      0.003956     -0.005740
      8.55094      1.51215     18.64671        -0.007846      0.006397     -0.000879
      3.26930      3.02121     20.64453         0.016989     -0.008520     -0.061763
      3.29580      3.03275     23.21839        -0.013109     -0.065704     -0.076892
      7.80072      1.50778     22.08630        -0.010470      0.032286     -0.016628
      5.34493      1.51194     22.08740         0.050142      0.025894     -0.030922
      3.28594      6.05245      7.50000        -0.000057      0.000001      1.784158
      3.28594      6.05245     10.06746        -0.000088      0.000006      1.643139
      7.85560      4.53934      8.78373        -1.855917      0.000199     -0.750451
      5.28814      4.53934      8.78373         1.855445      0.000200     -0.750392
      6.57187      6.05245     10.78594        -0.000207     -0.000002     -1.173990
      6.57187      6.05245     13.35340        -0.000637     -0.000002     -0.147487
      4.56967      4.53934     12.06967         0.399284      0.000666      0.060101
      8.57408      4.53934     12.06967        -0.400998      0.000421      0.059431
      3.28594      6.05245     14.07187        -0.001382      0.000001     -0.000719
      3.28594      6.05245     16.63933         0.006333      0.000002      0.129380
      7.85560      4.53934     15.35560        -0.332760      0.017234      0.052655
      5.28814      4.53934     15.35560         0.322647      0.017363      0.052017
      6.57046      6.05245     17.37023         0.001965      0.000001      0.045580
      6.57564      6.05245     19.95789         0.009682     -0.000005      0.274867
      4.59174      4.53959     18.65839         0.049349      0.005663      0.001629
      8.55150      4.54002     18.65391        -0.029371      0.008060      0.007542
      3.25927      6.05245     20.64208         0.020578      0.000001     -0.092613
      3.33459      6.05245     23.21402        -0.050119     -0.000004     -0.224731
      7.79810      4.52857     22.07635        -0.093137      0.193609      0.171204
      5.33142      4.51499     22.03358         0.220005      0.249699      0.197473
 -----------------------------------------------------------------------------------
    total drift:                                0.001627     -0.000073     -0.021216


--------------------------------------------------------------------------------------------------------



  FREE ENERGIE OF THE ION-ELECTRON SYSTEM (eV)
  ---------------------------------------------------
  free  energy   TOTEN  =     -1913.07689261 eV

  energy  without entropy=    -1913.07689261  energy(sigma->0) =    -1913.07689261
 


--------------------------------------------------------------------------------------------------------


    POTLOK:  cpu time      0.1640: real time      0.1645


--------------------------------------------------------------------------------------------------------


     LOOP+:  cpu time   1705.7573: real time   1714.2256
    4ORBIT:  cpu time      0.0000: real time      0.0000

 total amount of memory used by VASP MPI-rank0   651744. kBytes
=======================================================================

   base      :      30000. kBytes
   nonl-proj :     407467. kBytes
   fftplans  :      42363. kBytes
   grid      :      58508. kBytes
   one-center:       1866. kBytes
   wavefun   :     111540. kBytes
 
  
  
 General timing and accounting informations for this job:
 ========================================================
  
                  Total CPU time used (sec):     1750.311
                            User time (sec):     1744.874
                          System time (sec):        5.437
                         Elapsed time (sec):     1759.759
  
                   Maximum memory used (kb):     1162420.
                   Average memory used (kb):          N/A
  
                          Minor page faults:       155478
                          Major page faults:          138
                 Voluntary context switches:         3092
