 vasp.6.3.0 20Jan22 (build Mar 11 2022 13:48:16) complex                        
  
 executed on             LinuxIFC date 2024.02.12  07:01:16
 running on  304 total cores
 distrk:  each k-point on  304 cores,    1 groups
 distr:  one band on NCORE=  19 cores,   16 groups


--------------------------------------------------------------------------------------------------------


 INCAR:
   SYSTEM = Oxide-Surface
   ISMEAR = 0
   SIGMA = 0.05
   EDIFF = 1E-5
   ALGO = ALL
   ISTART = 0
   IBRION = -1
   NSW = 0
   ISYM = 2
   DIPOL = 0.5 0.5 0.5
   IDIPOL = 3
   LDIPOL = .TRUE.
   GGA = PE
   IVDW = 11
   ENCUT = 600
   PREC = Accurate
   LASPH = .TRUE.
   LREAL = .FALSE.
   ISPIN = 1
   NELM = 200
   NELMIN = 8
   NCORE = 19
   KPAR = 1
   LWAVE = .FALSE.
   LCHARG = .FALSE.

 POTCAR:    PAW_PBE C 08Apr2002                   
 POTCAR:    PAW_PBE O 08Apr2002                   
 POTCAR:    PAW_PBE Mg_pv 13Apr2007               
 POTCAR:    PAW_PBE O 08Apr2002                   
 POTCAR:    PAW_PBE C 08Apr2002                   
   SHA256 =  253f7b50bb8d59471dbedb8285d89021f4a42ed1a2c5d38a03a736e69125dd95 C/POTCAR              
   COPYR  = (c) Copyright 08Apr2002 Georg Kresse                                                    
   COPYR  = This file is part of the software VASP. Any use, copying, and all other rights are regul
   COPYR  = If you do not have a valid VASP license, you may not use, copy or distribute this file. 
   VRHFIN =C: s2p2                                                                                  
   LEXCH  = PE                                                                                      
   EATOM  =   147.1560 eV,   10.8157 Ry                                                             
                                                                                                    
   TITEL  = PAW_PBE C 08Apr2002                                                                     
   LULTRA =        F    use ultrasoft PP ?                                                          
   IUNSCR =        1    unscreen: 0-lin 1-nonlin 2-no                                               
   RPACOR =    1.200    partial core radius                                                         
   POMASS =   12.011; ZVAL   =    4.000    mass and valenz                                          
   RCORE  =    1.500    outmost cutoff radius                                                       
   RWIGS  =    1.630; RWIGS  =    0.863    wigner-seitz radius (au A)                               
   ENMAX  =  400.000; ENMIN  =  300.000 eV                                                          
   ICORE  =        2    local potential                                                             
   LCOR   =        T    correct aug charges                                                         
   LPAW   =        T    paw PP                                                                      
   EAUG   =  644.873                                                                                
   DEXC   =    0.000                                                                                
   RMAX   =    1.529    core radius for proj-oper                                                   
   RAUG   =    1.300    factor for augmentation sphere                                              
   RDEP   =    1.501    radius for radial grids                                                     
   RDEPT  =    1.300    core radius for aug-charge                                                  
                                                                                                    
   Atomic configuration                                                                             
    4 entries                                                                                       
     n  l   j            E        occ.                                                              
     1  0  0.50      -273.3789   2.0000                                                             
     2  0  0.50       -13.7508   2.0000                                                             
     2  1  0.50        -5.2854   2.0000                                                             
     3  2  1.50        -5.4423   0.0000                                                             
   Description                                                                                      
     l       E           TYP  RCUT    TYP  RCUT                                                     
     0    -13.7508458     23  1.200                                                                 
     0     -8.2022199     23  1.200                                                                 
     1     -5.2854383     23  1.500                                                                 
     1     34.0145650     23  1.500                                                                 
     2     -5.4423304      7  1.500                                                                 
  local pseudopotential read in
  partial core-charges read in
  partial kinetic energy density read in
  atomic valenz-charges read in
  non local Contribution for L=           0  read in
    real space projection operators read in
  non local Contribution for L=           0  read in
    real space projection operators read in
  non local Contribution for L=           1  read in
    real space projection operators read in
  non local Contribution for L=           1  read in
    real space projection operators read in
    PAW grid and wavefunctions read in
 
   number of l-projection  operators is LMAX  =           4
   number of lm-projection operators is LMMAX =           8
 
 POTCAR:    PAW_PBE O 08Apr2002                   
   SHA256 =  818f92134a0a090dccd8ba1447fa70422a3b330e708bb4f08108d8ae51209ddf O/POTCAR              
   COPYR  = (c) Copyright 08Apr2002 Georg Kresse                                                    
   COPYR  = This file is part of the software VASP. Any use, copying, and all other rights are regul
   COPYR  = If you do not have a valid VASP license, you may not use, copy or distribute this file. 
   VRHFIN =O: s2p4                                                                                  
   LEXCH  = PE                                                                                      
   EATOM  =   432.3788 eV,   31.7789 Ry                                                             
                                                                                                    
   TITEL  = PAW_PBE O 08Apr2002                                                                     
   LULTRA =        F    use ultrasoft PP ?                                                          
   IUNSCR =        1    unscreen: 0-lin 1-nonlin 2-no                                               
   RPACOR =    1.200    partial core radius                                                         
   POMASS =   16.000; ZVAL   =    6.000    mass and valenz                                          
   RCORE  =    1.520    outmost cutoff radius                                                       
   RWIGS  =    1.550; RWIGS  =    0.820    wigner-seitz radius (au A)                               
   ENMAX  =  400.000; ENMIN  =  300.000 eV                                                          
   ICORE  =        2    local potential                                                             
   LCOR   =        T    correct aug charges                                                         
   LPAW   =        T    paw PP                                                                      
   EAUG   =  605.392                                                                                
   DEXC   =    0.000                                                                                
   RMAX   =    1.553    core radius for proj-oper                                                   
   RAUG   =    1.300    factor for augmentation sphere                                              
   RDEP   =    1.550    radius for radial grids                                                     
   RDEPT  =    1.329    core radius for aug-charge                                                  
                                                                                                    
   Atomic configuration                                                                             
    4 entries                                                                                       
     n  l   j            E        occ.                                                              
     1  0  0.50      -514.6923   2.0000                                                             
     2  0  0.50       -23.9615   2.0000                                                             
     2  1  0.50        -9.0305   4.0000                                                             
     3  2  1.50        -9.5241   0.0000                                                             
   Description                                                                                      
     l       E           TYP  RCUT    TYP  RCUT                                                     
     0    -23.9615318     23  1.200                                                                 
     0     -9.5240782     23  1.200                                                                 
     1     -9.0304911     23  1.520                                                                 
     1      8.1634956     23  1.520                                                                 
     2     -9.5240782      7  1.500                                                                 
  local pseudopotential read in
  partial core-charges read in
  partial kinetic energy density read in
  kinetic energy density of atom read in
  atomic valenz-charges read in
  non local Contribution for L=           0  read in
    real space projection operators read in
  non local Contribution for L=           0  read in
    real space projection operators read in
  non local Contribution for L=           1  read in
    real space projection operators read in
  non local Contribution for L=           1  read in
    real space projection operators read in
    PAW grid and wavefunctions read in
 
   number of l-projection  operators is LMAX  =           4
   number of lm-projection operators is LMMAX =           8
 
 POTCAR:    PAW_PBE Mg_pv 13Apr2007               
   SHA256 =  f474ac0dd33840b9ae76c01d57fea79fdf77cdfbb07d5ade72c65f83c709b62b Mg_pv/POTCAR          
   COPYR  = (c) Copyright 13Apr2007 Georg Kresse                                                    
   COPYR  = This file is part of the software VASP. Any use, copying, and all other rights are regul
   COPYR  = If you do not have a valid VASP license, you may not use, copy or distribute this file. 
   VRHFIN =Mg: p6s2                                                                                 
   LEXCH  = PE                                                                                      
   EATOM  =  1056.7344 eV,   77.6678 Ry                                                             
                                                                                                    
   TITEL  = PAW_PBE Mg_pv 13Apr2007                                                                 
   LULTRA =        F    use ultrasoft PP ?                                                          
   IUNSCR =        1    unscreen: 0-lin 1-nonlin 2-no                                               
   RPACOR =    1.500    partial core radius                                                         
   POMASS =   24.305; ZVAL   =    8.000    mass and valenz                                          
   RCORE  =    2.000    outmost cutoff radius                                                       
   RWIGS  =    2.000; RWIGS  =    1.058    wigner-seitz radius (au A)                               
   ENMAX  =  403.929; ENMIN  =  302.947 eV                                                          
   RCLOC  =    1.506    cutoff for local pot                                                        
   LCOR   =        T    correct aug charges                                                         
   LPAW   =        T    paw PP                                                                      
   EAUG   =  758.780                                                                                
   DEXC   =    0.000                                                                                
   RMAX   =    2.045    core radius for proj-oper                                                   
   RAUG   =    1.300    factor for augmentation sphere                                              
   RDEP   =    2.025    radius for radial grids                                                     
   RDEPT  =    1.557    core radius for aug-charge                                                  
                                                                                                    
   Atomic configuration                                                                             
    5 entries                                                                                       
     n  l   j            E        occ.                                                              
     1  0  0.50     -1259.6230   2.0000                                                             
     2  0  0.50       -79.8442   2.0000                                                             
     2  1  1.50       -46.6121   6.0000                                                             
     3  0  0.50        -4.7055   2.0000                                                             
     3  2  1.50        -1.3606   0.0000                                                             
   Description                                                                                      
     l       E           TYP  RCUT    TYP  RCUT                                                     
     1    -46.6121073     23  1.600                                                                 
     1      2.7211652     23  1.600                                                                 
     0     -4.7054661     23  2.000                                                                 
     0     61.2262170     23  2.000                                                                 
     2     -1.3605826     23  2.000                                                                 
  local pseudopotential read in
  partial core-charges read in
  partial kinetic energy density read in
  atomic valenz-charges read in
  non local Contribution for L=           1  read in
    real space projection operators read in
  non local Contribution for L=           1  read in
    real space projection operators read in
  non local Contribution for L=           0  read in
    real space projection operators read in
  non local Contribution for L=           0  read in
    real space projection operators read in
  non local Contribution for L=           2  read in
    real space projection operators read in
    PAW grid and wavefunctions read in
 
   number of l-projection  operators is LMAX  =           5
   number of lm-projection operators is LMMAX =          13
 
 POTCAR:    PAW_PBE O 08Apr2002                   
   SHA256 =  818f92134a0a090dccd8ba1447fa70422a3b330e708bb4f08108d8ae51209ddf O/POTCAR              
   COPYR  = (c) Copyright 08Apr2002 Georg Kresse                                                    
   COPYR  = This file is part of the software VASP. Any use, copying, and all other rights are regul
   COPYR  = If you do not have a valid VASP license, you may not use, copy or distribute this file. 
   VRHFIN =O: s2p4                                                                                  
   LEXCH  = PE                                                                                      
   EATOM  =   432.3788 eV,   31.7789 Ry                                                             
                                                                                                    
   TITEL  = PAW_PBE O 08Apr2002                                                                     
   LULTRA =        F    use ultrasoft PP ?                                                          
   IUNSCR =        1    unscreen: 0-lin 1-nonlin 2-no                                               
   RPACOR =    1.200    partial core radius                                                         
   POMASS =   16.000; ZVAL   =    6.000    mass and valenz                                          
   RCORE  =    1.520    outmost cutoff radius                                                       
   RWIGS  =    1.550; RWIGS  =    0.820    wigner-seitz radius (au A)                               
   ENMAX  =  400.000; ENMIN  =  300.000 eV                                                          
   ICORE  =        2    local potential                                                             
   LCOR   =        T    correct aug charges                                                         
   LPAW   =        T    paw PP                                                                      
   EAUG   =  605.392                                                                                
   DEXC   =    0.000                                                                                
   RMAX   =    1.553    core radius for proj-oper                                                   
   RAUG   =    1.300    factor for augmentation sphere                                              
   RDEP   =    1.550    radius for radial grids                                                     
   RDEPT  =    1.329    core radius for aug-charge                                                  
                                                                                                    
   Atomic configuration                                                                             
    4 entries                                                                                       
     n  l   j            E        occ.                                                              
     1  0  0.50      -514.6923   2.0000                                                             
     2  0  0.50       -23.9615   2.0000                                                             
     2  1  0.50        -9.0305   4.0000                                                             
     3  2  1.50        -9.5241   0.0000                                                             
   Description                                                                                      
     l       E           TYP  RCUT    TYP  RCUT                                                     
     0    -23.9615318     23  1.200                                                                 
     0     -9.5240782     23  1.200                                                                 
     1     -9.0304911     23  1.520                                                                 
     1      8.1634956     23  1.520                                                                 
     2     -9.5240782      7  1.500                                                                 
  local pseudopotential read in
  partial core-charges read in
  partial kinetic energy density read in
  kinetic energy density of atom read in
  atomic valenz-charges read in
  non local Contribution for L=           0  read in
    real space projection operators read in
  non local Contribution for L=           0  read in
    real space projection operators read in
  non local Contribution for L=           1  read in
    real space projection operators read in
  non local Contribution for L=           1  read in
    real space projection operators read in
    PAW grid and wavefunctions read in
 
   number of l-projection  operators is LMAX  =           4
   number of lm-projection operators is LMMAX =           8
 
 -----------------------------------------------------------------------------
|                                                                             |
|               ----> ADVICE to this user running VASP <----                  |
|                                                                             |
|     You have a (more or less) 'large supercell' and for larger cells it     |
|     might be more efficient to use real-space projection operators.         |
|     Therefore, try LREAL= Auto in the INCAR file.                           |
|     Mind: For very accurate calculation, you might also keep the            |
|     reciprocal projection scheme (i.e. LREAL=.FALSE.).                      |
|                                                                             |
 -----------------------------------------------------------------------------

  PAW_PBE C 08Apr2002                   :
 energy of atom  1       EATOM= -147.1560
 kinetic energy error for atom=    0.0057 (will be added to EATOM!!)
  PAW_PBE O 08Apr2002                   :
 energy of atom  2       EATOM= -432.3788
 kinetic energy error for atom=    0.0168 (will be added to EATOM!!)
  PAW_PBE Mg_pv 13Apr2007               :
 energy of atom  3       EATOM=-1056.7344
 kinetic energy error for atom=    0.0221 (will be added to EATOM!!)
  PAW_PBE O 08Apr2002                   :
 energy of atom  4       EATOM= -432.3788
 kinetic energy error for atom=    0.0168 (will be added to EATOM!!)
 
 
 POSCAR:  C  O Mg  O
  positions in direct lattice
  No initial velocities read in
 exchange correlation table for  LEXCH =        8
   RHO(1)=    0.500       N(1)  =     2000
   RHO(2)=  100.500       N(2)  =     4000
 


--------------------------------------------------------------------------------------------------------


 ion  position               nearest neighbor table
   1  0.625  0.625  0.771-   3 1.18   2 1.18
   2  0.526  0.526  0.773-   1 1.18
   3  0.724  0.724  0.773-   1 1.18
   4  0.000  0.750  0.352-  36 2.11  38 2.11  39 2.11  46 2.11  55 2.11
   5  0.250  0.000  0.352-  37 2.11  38 2.11  39 2.11  47 2.11  54 2.11
   6  0.000  0.000  0.451-  38 2.11  37 2.11  36 2.11  44 2.11  53 2.11  42 2.12
   7  0.250  0.750  0.451-  39 2.11  37 2.11  36 2.11  45 2.11  52 2.11  43 2.12
   8  0.000  0.750  0.550-  50 2.11  42 2.11  59 2.11  43 2.11  36 2.12  40 2.14
   9  0.250  1.000  0.550-  51 2.11  42 2.11  58 2.11  43 2.11  37 2.12  41 2.15
  10  0.000  0.000  0.649-  48 2.11  41 2.11  40 2.11  57 2.11  42 2.11
  11  0.250  0.750  0.649-  40 2.10  43 2.11  49 2.11  41 2.11  56 2.12
  12  0.000  0.250  0.352-  44 2.11  38 2.11  46 2.11  47 2.11  63 2.11
  13  0.250  0.500  0.352-  45 2.11  39 2.11  46 2.11  47 2.11  62 2.11
  14  0.000  0.500  0.451-  46 2.11  44 2.11  45 2.11  36 2.11  61 2.11  50 2.12
  15  0.250  0.250  0.451-  47 2.11  44 2.11  45 2.11  37 2.11  60 2.11  51 2.12
  16  1.000  0.250  0.550-  51 2.11  42 2.11  67 2.11  50 2.11  44 2.12  48 2.15
  17  0.250  0.500  0.550-  43 2.11  51 2.11  66 2.11  50 2.11  45 2.12  49 2.14
  18  0.000  0.500  0.649-  49 2.10  50 2.11  40 2.11  48 2.11  65 2.12
  19  0.250  0.250  0.649-  41 2.11  48 2.11  64 2.11  49 2.11  51 2.11
  20  0.500  0.750  0.352-  52 2.11  39 2.11  54 2.11  55 2.11  62 2.11
  21  0.750  0.000  0.352-  53 2.11  38 2.11  54 2.11  55 2.11  63 2.11
  22  0.500  0.000  0.451-  54 2.11  52 2.11  53 2.11  37 2.11  60 2.11  58 2.12
  23  0.750  0.750  0.451-  55 2.11  52 2.11  53 2.11  36 2.11  61 2.11  59 2.12
  24  0.500  0.750  0.550-  66 2.11  59 2.11  43 2.11  58 2.11  52 2.13  56 2.16
  25  0.750  0.000  0.550-  58 2.11  42 2.11  59 2.11  67 2.11  53 2.12  57 2.14
  26  0.500  0.000  0.649-  64 2.10  58 2.11  57 2.11  41 2.11  56 2.12
  27  0.752  0.752  0.649-  57 2.10  40 2.10  59 2.11  56 2.12  65 2.12
  28  0.500  0.250  0.352-  60 2.11  54 2.11  47 2.11  62 2.11  63 2.11
  29  0.750  0.500  0.352-  61 2.11  55 2.11  46 2.11  62 2.11  63 2.11
  30  0.500  0.500  0.451-  62 2.11  52 2.11  60 2.11  61 2.11  45 2.11  66 2.12
  31  0.750  0.250  0.451-  63 2.11  53 2.11  60 2.11  61 2.11  44 2.11  67 2.12
  32  0.500  0.250  0.550-  67 2.11  51 2.11  66 2.11  58 2.11  60 2.12  64 2.14
  33  0.750  0.500  0.550-  66 2.11  59 2.11  67 2.11  50 2.11  61 2.13  65 2.16
  34  0.498  0.498  0.649-  64 2.10  49 2.10  66 2.11  56 2.12  65 2.12
  35  0.750  0.250  0.649-  57 2.10  67 2.11  64 2.11  48 2.11  65 2.12
  36  0.000  0.750  0.451-   4 2.11   6 2.11   7 2.11  14 2.11  23 2.11   8 2.12
  37  0.250  0.000  0.451-   5 2.11   6 2.11   7 2.11  15 2.11  22 2.11   9 2.12
  38  0.000  0.000  0.352-   6 2.11   5 2.11   4 2.11  12 2.11  21 2.11
  39  0.250  0.750  0.352-   7 2.11   5 2.11   4 2.11  13 2.11  20 2.11
  40  0.001  0.750  0.651-  27 2.10  11 2.10  18 2.11  10 2.11   8 2.14
  41  0.250  1.000  0.651-  10 2.11  19 2.11  11 2.11  26 2.11   9 2.15
  42  0.000  0.000  0.550-  16 2.11   9 2.11   8 2.11  25 2.11  10 2.11   6 2.12
  43  0.250  0.750  0.550-  24 2.11  11 2.11   9 2.11  17 2.11   8 2.11   7 2.12
  44  0.000  0.250  0.451-  12 2.11   6 2.11  14 2.11  15 2.11  31 2.11  16 2.12
  45  0.250  0.500  0.451-  13 2.11   7 2.11  14 2.11  15 2.11  30 2.11  17 2.12
  46  0.000  0.500  0.352-  14 2.11  12 2.11  13 2.11   4 2.11  29 2.11
  47  0.250  0.250  0.352-  15 2.11  12 2.11  13 2.11   5 2.11  28 2.11
  48  1.000  0.250  0.651-  10 2.11  19 2.11  35 2.11  18 2.11  16 2.15
  49  0.249  0.500  0.651-  34 2.10  18 2.10  11 2.11  19 2.11  17 2.14
  50  1.000  0.500  0.550-  33 2.11  18 2.11  16 2.11   8 2.11  17 2.11  14 2.12
  51  0.250  0.250  0.550-   9 2.11  16 2.11  17 2.11  32 2.11  19 2.11  15 2.12
  52  0.500  0.750  0.451-  20 2.11   7 2.11  22 2.11  23 2.11  30 2.11  24 2.13
  53  0.750  0.000  0.451-  21 2.11   6 2.11  22 2.11  23 2.11  31 2.11  25 2.12
  54  0.500  0.000  0.352-  22 2.11  20 2.11  21 2.11   5 2.11  28 2.11
  55  0.750  0.750  0.352-  23 2.11  20 2.11  21 2.11   4 2.11  29 2.11
  56  0.500  0.750  0.652-  11 2.12  26 2.12  34 2.12  27 2.12  24 2.16
  57  0.750  0.001  0.651-  27 2.10  35 2.10  26 2.11  10 2.11  25 2.14
  58  0.500  1.000  0.550-  24 2.11  26 2.11   9 2.11  25 2.11  32 2.11  22 2.12
  59  0.750  0.750  0.550-  33 2.11  24 2.11   8 2.11  25 2.11  27 2.11  23 2.12
  60  0.500  0.250  0.451-  28 2.11  22 2.11  15 2.11  30 2.11  31 2.11  32 2.12
  61  0.750  0.500  0.451-  29 2.11  23 2.11  14 2.11  30 2.11  31 2.11  33 2.13
  62  0.500  0.500  0.352-  30 2.11  20 2.11  28 2.11  29 2.11  13 2.11
  63  0.750  0.250  0.352-  31 2.11  21 2.11  28 2.11  29 2.11  12 2.11
  64  0.500  0.249  0.651-  34 2.10  26 2.10  35 2.11  19 2.11  32 2.14
  65  0.750  0.500  0.652-  35 2.12  18 2.12  34 2.12  27 2.12  33 2.16
  66  0.500  0.500  0.550-  33 2.11  24 2.11  17 2.11  32 2.11  34 2.11  30 2.12
  67  0.750  0.250  0.550-  33 2.11  35 2.11  16 2.11  32 2.11  25 2.11  31 2.12
 
  LATTYP: Found a simple tetragonal cell.
 ALAT       =     8.4409846542
 C/A-ratio  =     2.5270438657
  
  Lattice vectors:
  
 A1 = (   8.4409846542,   0.0000000000,   0.0000000000)
 A2 = (   0.0000000000,   8.4409846542,   0.0000000000)
 A3 = (   0.0000000000,   0.0000000000,  21.3307384906)


Analysis of symmetry for initial positions (statically):
=====================================================================
 Subroutine PRICEL returns:
 Original cell was already a primitive cell.
 

 Routine SETGRP: Setting up the symmetry group for a 
 simple tetragonal supercell.


 Subroutine GETGRP returns: Found  4 space group operations
 (whereof  2 operations were pure point group operations)
 out of a pool of 16 trial point group operations.


The static configuration has the point symmetry C_1h.
 The point group associated with its full space group is C_2v.


Analysis of symmetry for dynamics (positions and initial velocities):
=====================================================================
 Subroutine PRICEL returns:
 Original cell was already a primitive cell.
 

 Routine SETGRP: Setting up the symmetry group for a 
 simple tetragonal supercell.


 Subroutine GETGRP returns: Found  4 space group operations
 (whereof  2 operations were pure point group operations)
 out of a pool of 16 trial point group operations.


The dynamic configuration has the point symmetry C_1h.
 The point group associated with its full space group is C_2v.


Analysis of constrained symmetry for selective dynamics:
=====================================================================
 Subroutine PRICEL returns:
 Original cell was already a primitive cell.
 

 Routine SETGRP: Setting up the symmetry group for a 
 simple tetragonal supercell.


 Subroutine GETGRP returns: Found  4 space group operations
 (whereof  2 operations were pure point group operations)
 out of a pool of 16 trial point group operations.


The constrained configuration has the point symmetry C_1h.
 The point group associated with its full space group is C_2v.


 Subroutine INISYM returns: Found  4 space group operations
 (whereof  2 operations are pure point group operations),
 and found     1 'primitive' translations


----------------------------------------------------------------------------------------

                                     Primitive cell                                     

  volume of cell :    1519.8199

  direct lattice vectors                    reciprocal lattice vectors
     8.440984654  0.000000000  0.000000000     0.118469591  0.000000000  0.000000000
     0.000000000  8.440984654  0.000000000     0.000000000  0.118469591  0.000000000
     0.000000000  0.000000000 21.330738491     0.000000000  0.000000000  0.046880702

  length of vectors
     8.440984654  8.440984654 21.330738491     0.118469591  0.118469591  0.046880702

  position of ions in fractional coordinates (direct lattice)
     0.625002899  0.625002901  0.771290819
     0.526143413  0.526143399  0.772694230
     0.723854540  0.723854548  0.772693667
     0.000000000  0.750000000  0.351605267
     0.250000000  0.000000000  0.351605267
     0.000000000  0.000000000  0.450535089
     0.250000000  0.750000000  0.450535089
     0.000170472  0.750065529  0.550134920
     0.250061573  0.999938530  0.550145492
     0.000200186  0.000200186  0.648841524
     0.249828182  0.749789003  0.648754906
     0.000000000  0.250000000  0.351605267
     0.250000000  0.500000000  0.351605267
     0.000000000  0.500000000  0.450535089
     0.250000000  0.250000000  0.450535089
     0.999938525  0.250061567  0.550145489
     0.249829706  0.499934572  0.550134937
     0.000171958  0.500211139  0.648754903
     0.249799949  0.249799949  0.648841577
     0.500000000  0.750000000  0.351605267
     0.750000000  0.000000000  0.351605267
     0.500000000  0.000000000  0.450535089
     0.750000000  0.750000000  0.450535089
     0.500270350  0.749729670  0.550330173
     0.750065521  0.000170473  0.550134923
     0.500211148  0.000171955  0.648754900
     0.751918702  0.751918715  0.649114650
     0.500000000  0.250000000  0.351605267
     0.750000000  0.500000000  0.351605267
     0.500000000  0.500000000  0.450535089
     0.750000000  0.250000000  0.450535089
     0.499934575  0.249829699  0.550134936
     0.749729660  0.500270350  0.550330171
     0.498081444  0.498081442  0.649114742
     0.749788996  0.249828183  0.648754905
     0.000000000  0.750000000  0.450535089
     0.250000000  0.000000000  0.450535089
     0.000000000  0.000000000  0.351605267
     0.250000000  0.750000000  0.351605267
     0.000660961  0.750176837  0.650529582
     0.250168661  0.999831464  0.651058193
     0.000114890  0.000114892  0.549832723
     0.250404141  0.749981448  0.549877119
     0.000000000  0.250000000  0.450535089
     0.250000000  0.500000000  0.450535089
     0.000000000  0.500000000  0.351605267
     0.250000000  0.250000000  0.351605267
     0.999831464  0.250168659  0.651058194
     0.249339233  0.499823327  0.650529652
     0.999595943  0.500018646  0.549877121
     0.249885200  0.249885199  0.549832736
     0.500000000  0.750000000  0.450535089
     0.750000000  0.000000000  0.450535089
     0.500000000  0.000000000  0.351605267
     0.750000000  0.750000000  0.351605267
     0.500320192  0.749679842  0.651810825
     0.750176827  0.000660961  0.650529580
     0.500018644  0.999595957  0.549877121
     0.749970659  0.749970656  0.550040631
     0.500000000  0.250000000  0.450535089
     0.750000000  0.500000000  0.450535089
     0.500000000  0.500000000  0.351605267
     0.750000000  0.250000000  0.351605267
     0.499823327  0.249339232  0.650529649
     0.749679851  0.500320189  0.651810830
     0.500029444  0.500029444  0.550040659
     0.749981448  0.250404145  0.549877121

  ion indices of the primitive-cell ions
   primitive index   ion index
                 1           1
                 2           2
                 3           3
                 4           4
                 5           5
                 6           6
                 7           7
                 8           8
                 9           9
                10          10
                11          11
                12          12
                13          13
                14          14
                15          15
                16          16
                17          17
                18          18
                19          19
                20          20
                21          21
                22          22
                23          23
                24          24
                25          25
                26          26
                27          27
                28          28
                29          29
                30          30
                31          31
                32          32
                33          33
                34          34
                35          35
                36          36
                37          37
                38          38
                39          39
                40          40
                41          41
                42          42
                43          43
                44          44
                45          45
                46          46
                47          47
                48          48
                49          49
                50          50
                51          51
                52          52
                53          53
                54          54
                55          55
                56          56
                57          57
                58          58
                59          59
                60          60
                61          61
                62          62
                63          63
                64          64
                65          65
                66          66
                67          67

----------------------------------------------------------------------------------------

 
 
 KPOINTS: pymatgen v2020.8.13 with grid density = 

Automatic generation of k-mesh.
 Grid dimensions read from file:
 generate k-points for:    2    2    1

 Generating k-lattice:

  Cartesian coordinates                     Fractional coordinates (reciprocal lattice)
     0.059234796  0.000000000  0.000000000     0.500000000  0.000000000  0.000000000
     0.000000000  0.059234796  0.000000000     0.000000000  0.500000000  0.000000000
     0.000000000  0.000000000  0.046880702     0.000000000  0.000000000  1.000000000

  Length of vectors
     0.059234796  0.059234796  0.046880702

  Shift w.r.t. Gamma in fractional coordinates (k-lattice)
     0.000000000  0.000000000  0.000000000

 
 Subroutine IBZKPT returns following result:
 ===========================================
 
 Found      3 irreducible k-points:
 
 Following reciprocal coordinates:
            Coordinates               Weight
  0.000000  0.000000  0.000000      1.000000
  0.500000  0.000000  0.000000      2.000000
  0.500000  0.500000  0.000000      1.000000
 
 Following cartesian coordinates:
            Coordinates               Weight
  0.000000  0.000000  0.000000      1.000000
  0.059235  0.000000  0.000000      2.000000
  0.059235  0.059235  0.000000      1.000000
 


--------------------------------------------------------------------------------------------------------




 Dimension of arrays:
   k-points           NKPTS =      3   k-points in BZ     NKDIM =      3   number of bands    NBANDS=    288
   number of dos      NEDOS =    301   number of ions     NIONS =     67
   non local maximal  LDIM  =      5   non local SUM 2l+1 LMDIM =     13
   total plane-waves  NPLWV = 882000
   max r-space proj   IRMAX =      1   max aug-charges    IRDMAX=  11635
   dimension x,y,z NGX =    70 NGY =   70 NGZ =  180
   dimension x,y,z NGXF=   140 NGYF=  140 NGZF=  360
   support grid    NGXF=   140 NGYF=  140 NGZF=  360
   ions per type =               1   2  32  32
   NGX,Y,Z   is equivalent  to a cutoff of  13.79, 13.79, 14.03 a.u.
   NGXF,Y,Z  is equivalent  to a cutoff of  27.57, 27.57, 28.06 a.u.

 SYSTEM =  Oxide-Surface                           
 POSCAR =   C  O Mg  O                             

--------------------------------------------------------------------------------------------------------


  energy-cutoff  :      600.00
  volume of cell :     1519.82
      direct lattice vectors                 reciprocal lattice vectors
     8.440984654  0.000000000  0.000000000     0.118469591  0.000000000  0.000000000
     0.000000000  8.440984654  0.000000000     0.000000000  0.118469591  0.000000000
     0.000000000  0.000000000 21.330738491     0.000000000  0.000000000  0.046880702

  length of vectors
     8.440984654  8.440984654 21.330738491     0.118469591  0.118469591  0.046880702


 
 k-points in units of 2pi/SCALE and weight: pymatgen v2020.8.13 with grid density = 
   0.00000000  0.00000000  0.00000000       0.250
   0.05923480  0.00000000  0.00000000       0.500
   0.05923480  0.05923480  0.00000000       0.250
 
 k-points in reciprocal lattice and weights: pymatgen v2020.8.13 with grid density = 
   0.00000000  0.00000000  0.00000000       0.250
   0.50000000  0.00000000  0.00000000       0.500
   0.50000000  0.50000000  0.00000000       0.250
 
 position of ions in fractional coordinates (direct lattice) 
   0.62500290  0.62500290  0.77129082
   0.52614341  0.52614340  0.77269423
   0.72385454  0.72385455  0.77269367
   0.00000000  0.75000000  0.35160527
   0.25000000  0.00000000  0.35160527
   0.00000000  0.00000000  0.45053509
   0.25000000  0.75000000  0.45053509
   0.00017047  0.75006553  0.55013492
   0.25006157  0.99993853  0.55014549
   0.00020019  0.00020019  0.64884152
   0.24982818  0.74978900  0.64875491
   0.00000000  0.25000000  0.35160527
   0.25000000  0.50000000  0.35160527
   0.00000000  0.50000000  0.45053509
   0.25000000  0.25000000  0.45053509
   0.99993852  0.25006157  0.55014549
   0.24982971  0.49993457  0.55013494
   0.00017196  0.50021114  0.64875490
   0.24979995  0.24979995  0.64884158
   0.50000000  0.75000000  0.35160527
   0.75000000  0.00000000  0.35160527
   0.50000000  0.00000000  0.45053509
   0.75000000  0.75000000  0.45053509
   0.50027035  0.74972967  0.55033017
   0.75006552  0.00017047  0.55013492
   0.50021115  0.00017195  0.64875490
   0.75191870  0.75191871  0.64911465
   0.50000000  0.25000000  0.35160527
   0.75000000  0.50000000  0.35160527
   0.50000000  0.50000000  0.45053509
   0.75000000  0.25000000  0.45053509
   0.49993457  0.24982970  0.55013494
   0.74972966  0.50027035  0.55033017
   0.49808144  0.49808144  0.64911474
   0.74978900  0.24982818  0.64875491
   0.00000000  0.75000000  0.45053509
   0.25000000  0.00000000  0.45053509
   0.00000000  0.00000000  0.35160527
   0.25000000  0.75000000  0.35160527
   0.00066096  0.75017684  0.65052958
   0.25016866  0.99983146  0.65105819
   0.00011489  0.00011489  0.54983272
   0.25040414  0.74998145  0.54987712
   0.00000000  0.25000000  0.45053509
   0.25000000  0.50000000  0.45053509
   0.00000000  0.50000000  0.35160527
   0.25000000  0.25000000  0.35160527
   0.99983146  0.25016866  0.65105819
   0.24933923  0.49982333  0.65052965
   0.99959594  0.50001865  0.54987712
   0.24988520  0.24988520  0.54983274
   0.50000000  0.75000000  0.45053509
   0.75000000  0.00000000  0.45053509
   0.50000000  0.00000000  0.35160527
   0.75000000  0.75000000  0.35160527
   0.50032019  0.74967984  0.65181082
   0.75017683  0.00066096  0.65052958
   0.50001864  0.99959596  0.54987712
   0.74997066  0.74997066  0.55004063
   0.50000000  0.25000000  0.45053509
   0.75000000  0.50000000  0.45053509
   0.50000000  0.50000000  0.35160527
   0.75000000  0.25000000  0.35160527
   0.49982333  0.24933923  0.65052965
   0.74967985  0.50032019  0.65181083
   0.50002944  0.50002944  0.55004066
   0.74998145  0.25040414  0.54987712
 
 position of ions in cartesian coordinates  (Angst):
   5.27563988  5.27563990 16.45220276
   4.44116847  4.44116835 16.48213855
   6.11004507  6.11004513 16.48212654
   0.00000000  6.33073849  7.50000000
   2.11024616  0.00000000  7.50000000
   0.00000000  0.00000000  9.61024616
   2.11024616  6.33073849  9.61024616
   0.00143895  6.33129162 11.73478412
   2.11076590  8.44046579 11.73500962
   0.00168977  0.00168977 13.84026887
   2.10879585  6.32895746 13.83842125
   0.00000000  2.11024616  7.50000000
   2.11024616  4.22049233  7.50000000
   0.00000000  4.22049233  9.61024616
   2.11024616  2.11024616  9.61024616
   8.44046574  2.11076585 11.73500956
   2.10880871  4.21994005 11.73478448
   0.00145150  4.22227455 13.83842119
   2.10855754  2.10855753 13.84026999
   4.22049233  6.33073849  7.50000000
   6.33073849  0.00000000  7.50000000
   4.22049233  0.00000000  9.61024616
   6.33073849  6.33073849  9.61024616
   4.22277435  6.32845664 11.73894901
   6.33129155  0.00143896 11.73478418
   4.22227462  0.00145147 13.83842113
   6.34693422  6.34693433 13.84609485
   4.22049233  2.11024616  7.50000000
   6.33073849  4.22049233  7.50000000
   4.22049233  4.22049233  9.61024616
   6.33073849  2.11024616  9.61024616
   4.21994007  2.10880865 11.73478446
   6.32845656  4.22277435 11.73894895
   4.20429783  4.20429781 13.84609682
   6.32895741  2.10879586 13.83842122
   0.00000000  6.33073849  9.61024616
   2.11024616  0.00000000  9.61024616
   0.00000000  0.00000000  7.50000000
   2.11024616  6.33073849  7.50000000
   0.00557916  6.33223117 13.87627639
   2.11166983  8.43956205 13.88755206
   0.00096978  0.00096980 11.72833803
   2.11365751  6.33058189 11.72928503
   0.00000000  2.11024616  9.61024616
   2.11024616  4.22049233  9.61024616
   0.00000000  4.22049233  7.50000000
   2.11024616  2.11024616  7.50000000
   8.43956205  2.11166981 13.88755208
   2.10466864  4.21900103 13.87627789
   8.43757402  4.22064972 11.72928508
   2.10927714  2.10927713 11.72833831
   4.22049233  6.33073849  9.61024616
   6.33073849  0.00000000  9.61024616
   4.22049233  0.00000000  7.50000000
   6.33073849  6.33073849  7.50000000
   4.22319506  6.32803605 13.90360625
   6.33223109  0.00557916 13.87627635
   4.22064970  8.43757413 11.72928507
   6.33049082  6.33049080 11.73277286
   4.22049233  2.11024616  9.61024616
   6.33073849  4.22049233  9.61024616
   4.22049233  4.22049233  7.50000000
   6.33073849  2.11024616  7.50000000
   4.21900103  2.10466863 13.87627782
   6.32803612  4.22319504 13.90360637
   4.22074086  4.22074086 11.73277345
   6.33058189  2.11365754 11.72928507
 


--------------------------------------------------------------------------------------------------------

--------------------------------------- Iteration      FINAL  ---------------------------------------


--------------------OUTCAR has been truncated-------------------------


--------------------OUTCAR has been truncated-------------------------


--------------------OUTCAR has been truncated-------------------------


--------------------OUTCAR has been truncated-------------------------


--------------------OUTCAR has been truncated-------------------------


--------------------OUTCAR has been truncated-------------------------


--------------------OUTCAR has been truncated-------------------------


--------------------OUTCAR has been truncated-------------------------


--------------------OUTCAR has been truncated-------------------------


--------------------OUTCAR has been truncated-------------------------


 ---------------------------------------------------------------------------------------------

         DFTD3 V3.0 Rev 1        
 IVDW         = 11
 DF pbe       
 parameters
 VDW_S6       =    1.0000
 VDW_S8       =    0.7220
 VDW_SR       =    1.2170
 rs18     =    1.0000
 alpha6   =   14.0000
 alpha8   =   16.0000
 k1-k3    =   16.0000    1.3333   -4.0000
 VDW_RADIUS   =   50.2022 A
 VDW_CNRADIUS =   21.1671 A
 Edisp (eV)   -9.47198

 E6    (eV) :    -4.3646
 E8    (eV) :    -5.1074
 % E8        : 53.92
    FORVDW:  cpu time      0.2702: real time      0.2891

  FORCE on cell =-STRESS in cart. coord.  units (eV):
  Direction    XX          YY          ZZ          XY          YZ          ZX
  --------------------------------------------------------------------------------------
  Alpha Z   926.92928   926.92928   926.92928
  Ewald  157974.00566157974.00577************   384.42009    -0.00181    -0.00180
  Hartree168418.35497168418.35498************   173.07172    -0.00055    -0.00054
  E(xc)   -2530.84181 -2530.84181 -2536.79326     1.03662     0.00000     0.00000
  Local  ************************335769.28572  -521.25179     0.00202     0.00200
  n-local -2863.16722 -2864.01447 -2881.38090    -2.88230    -0.00017    -0.00018
  augment  1059.79340  1059.79340  1051.80396    -1.38522    -0.00005    -0.00005
  Kinetic  7613.59189  7616.27023  7686.54444   -32.96274     0.00031     0.00031
  Fock        0.00000     0.00000     0.00000     0.00000     0.00000     0.00000
  vdW       -12.10092   -12.10092    -7.48241     0.01452     0.00000     0.00000
  -------------------------------------------------------------------------------------
  Total     -31.18698   -31.18698    -3.09546     0.06091     0.00000    -0.00000
  in kB     -32.87697   -32.87697    -3.26320     0.06421     0.00000    -0.00000
  external pressure =      -23.01 kB  Pullay stress =        0.00 kB


 VOLUME and BASIS-vectors are now :
 -----------------------------------------------------------------------------
  energy-cutoff  :      600.00
  volume of cell :     1519.82
      direct lattice vectors                 reciprocal lattice vectors
     8.440984654  0.000000000  0.000000000     0.118469591  0.000000000  0.000000000
     0.000000000  8.440984654  0.000000000     0.000000000  0.118469591  0.000000000
     0.000000000  0.000000000 21.330738491     0.000000000  0.000000000  0.046880702

  length of vectors
     8.440984654  8.440984654 21.330738491     0.118469591  0.118469591  0.046880702


 FORCES acting on ions:
    Electron-Ion                     Ewald-Force                    Non-Local-Force
 -----------------------------------------------------------------------------------------------
   0.291E-02 0.290E-02 -.103E+04   -.281E-01 -.281E-01 0.103E+04   0.244E-21 -.125E-20 0.364E+00
   0.188E+03 0.188E+03 -.156E+04   -.232E+03 -.232E+03 0.156E+04   0.443E+02 0.443E+02 -.280E+01
   -.188E+03 -.188E+03 -.156E+04   0.232E+03 0.232E+03 0.156E+04   -.443E+02 -.443E+02 -.280E+01
   -.212E+00 -.188E+00 0.209E+04   0.218E+00 0.194E+00 -.209E+04   0.137E-03 0.916E-04 -.704E+01
   0.199E+00 -.187E+00 0.209E+04   -.193E+00 0.193E+00 -.209E+04   -.314E-03 0.314E-03 -.705E+01
   -.918E+00 -.918E+00 0.739E+03   0.945E+00 0.945E+00 -.740E+03   -.153E-01 -.153E-01 0.500E+00
   0.938E+00 -.945E+00 0.741E+03   -.884E+00 0.967E+00 -.741E+03   -.332E-01 -.116E-01 0.521E+00
   -.652E+01 -.387E+01 -.598E+03   0.653E+01 0.388E+01 0.599E+03   0.425E-02 -.301E-02 -.405E+00
   0.376E+01 -.375E+01 -.610E+03   -.376E+01 0.376E+01 0.611E+03   0.451E-02 -.451E-02 -.175E+00
   -.194E+02 -.194E+02 -.197E+04   0.194E+02 0.194E+02 0.196E+04   -.660E-02 -.660E-02 0.602E+01
   0.253E+02 -.210E+02 -.195E+04   -.256E+02 0.210E+02 0.194E+04   0.267E+00 0.802E-04 0.602E+01
   -.187E+00 0.199E+00 0.209E+04   0.193E+00 -.193E+00 -.209E+04   0.314E-03 -.314E-03 -.705E+01
   0.224E+00 0.200E+00 0.209E+04   -.218E+00 -.194E+00 -.209E+04   -.137E-03 -.916E-04 -.704E+01
   -.925E+00 0.958E+00 0.741E+03   0.884E+00 -.967E+00 -.741E+03   0.332E-01 0.116E-01 0.521E+00
   0.931E+00 0.931E+00 0.739E+03   -.945E+00 -.945E+00 -.740E+03   0.153E-01 0.153E-01 0.500E+00
   -.375E+01 0.376E+01 -.610E+03   0.376E+01 -.376E+01 0.611E+03   -.451E-02 0.451E-02 -.175E+00
   0.654E+01 0.388E+01 -.598E+03   -.653E+01 -.388E+01 0.599E+03   -.425E-02 0.301E-02 -.405E+00
   -.253E+02 0.210E+02 -.195E+04   0.256E+02 -.210E+02 0.194E+04   -.267E+00 -.802E-04 0.602E+01
   0.194E+02 0.194E+02 -.197E+04   -.194E+02 -.194E+02 0.196E+04   0.660E-02 0.660E-02 0.602E+01
   0.228E+00 -.216E+00 0.209E+04   -.221E+00 0.221E+00 -.209E+04   -.117E-02 0.117E-02 -.706E+01
   -.188E+00 -.212E+00 0.209E+04   0.194E+00 0.218E+00 -.209E+04   0.916E-04 0.137E-03 -.704E+01
   0.958E+00 -.925E+00 0.741E+03   -.967E+00 0.884E+00 -.741E+03   0.116E-01 0.332E-01 0.521E+00
   -.945E+00 -.945E+00 0.743E+03   0.927E+00 0.927E+00 -.743E+03   0.189E-01 0.189E-01 0.581E+00
   0.670E+01 -.669E+01 -.593E+03   -.669E+01 0.669E+01 0.593E+03   -.114E-01 0.114E-01 0.510E-01
   -.387E+01 -.652E+01 -.598E+03   0.388E+01 0.653E+01 0.599E+03   -.301E-02 0.425E-02 -.405E+00
   0.210E+02 -.253E+02 -.195E+04   -.210E+02 0.256E+02 0.194E+04   -.802E-04 -.267E+00 0.602E+01
   -.348E+02 -.348E+02 -.185E+04   0.353E+02 0.353E+02 0.184E+04   -.451E+00 -.451E+00 0.572E+01
   0.200E+00 0.224E+00 0.209E+04   -.194E+00 -.218E+00 -.209E+04   -.916E-04 -.137E-03 -.704E+01
   -.216E+00 0.228E+00 0.209E+04   0.221E+00 -.221E+00 -.209E+04   0.117E-02 -.117E-02 -.706E+01
   0.958E+00 0.958E+00 0.743E+03   -.927E+00 -.927E+00 -.743E+03   -.189E-01 -.189E-01 0.581E+00
   -.945E+00 0.938E+00 0.741E+03   0.967E+00 -.884E+00 -.741E+03   -.116E-01 -.332E-01 0.521E+00
   0.388E+01 0.654E+01 -.598E+03   -.388E+01 -.653E+01 0.599E+03   0.301E-02 -.425E-02 -.405E+00
   -.669E+01 0.670E+01 -.593E+03   0.669E+01 -.669E+01 0.593E+03   0.114E-01 -.114E-01 0.510E-01
   0.348E+02 0.348E+02 -.185E+04   -.353E+02 -.353E+02 0.184E+04   0.451E+00 0.451E+00 0.572E+01
   -.210E+02 0.253E+02 -.195E+04   0.210E+02 -.256E+02 0.194E+04   0.802E-04 0.267E+00 0.602E+01
   -.722E+00 -.573E+00 0.555E+03   0.744E+00 0.599E+00 -.555E+03   0.853E-02 0.304E-02 -.782E-01
   0.631E+00 -.572E+00 0.554E+03   -.606E+00 0.606E+00 -.554E+03   0.609E-02 -.609E-02 -.116E+00
   -.127E+00 -.127E+00 0.157E+04   0.158E+00 0.158E+00 -.158E+04   -.269E-02 -.269E-02 0.349E+01
   0.181E+00 -.128E+00 0.157E+04   -.149E+00 0.159E+00 -.158E+04   -.411E-02 -.295E-02 0.349E+01
   -.290E+02 -.111E+02 -.147E+04   0.291E+02 0.111E+02 0.148E+04   -.547E-01 0.168E-01 -.511E+01
   0.991E+01 -.985E+01 -.150E+04   -.985E+01 0.985E+01 0.150E+04   -.358E-01 0.358E-01 -.502E+01
   -.369E+01 -.369E+01 -.451E+03   0.371E+01 0.371E+01 0.451E+03   0.137E-01 0.137E-01 0.221E+00
   0.367E+01 -.381E+01 -.446E+03   -.366E+01 0.383E+01 0.445E+03   0.166E-01 0.907E-02 0.287E+00
   -.572E+00 0.631E+00 0.554E+03   0.606E+00 -.606E+00 -.554E+03   -.609E-02 0.609E-02 -.116E+00
   0.781E+00 0.631E+00 0.555E+03   -.744E+00 -.599E+00 -.555E+03   -.853E-02 -.304E-02 -.782E-01
   -.123E+00 0.186E+00 0.157E+04   0.149E+00 -.159E+00 -.158E+04   0.411E-02 0.295E-02 0.349E+01
   0.186E+00 0.186E+00 0.157E+04   -.158E+00 -.158E+00 -.158E+04   0.269E-02 0.269E-02 0.349E+01
   -.985E+01 0.991E+01 -.150E+04   0.985E+01 -.985E+01 0.150E+04   0.358E-01 -.358E-01 -.502E+01
   0.290E+02 0.112E+02 -.147E+04   -.291E+02 -.111E+02 0.148E+04   0.547E-01 -.168E-01 -.511E+01
   -.362E+01 0.387E+01 -.446E+03   0.366E+01 -.383E+01 0.445E+03   -.166E-01 -.907E-02 0.287E+00
   0.375E+01 0.375E+01 -.451E+03   -.371E+01 -.371E+01 0.451E+03   -.137E-01 -.137E-01 0.221E+00
   0.844E+00 -.786E+00 0.556E+03   -.836E+00 0.836E+00 -.556E+03   0.292E-01 -.292E-01 -.149E+00
   -.573E+00 -.722E+00 0.555E+03   0.599E+00 0.744E+00 -.555E+03   0.304E-02 0.853E-02 -.782E-01
   0.186E+00 -.123E+00 0.157E+04   -.159E+00 0.149E+00 -.158E+04   0.295E-02 0.411E-02 0.349E+01
   -.126E+00 -.126E+00 0.157E+04   0.152E+00 0.152E+00 -.158E+04   0.577E-02 0.577E-02 0.348E+01
   0.361E+02 -.361E+02 -.143E+04   -.360E+02 0.360E+02 0.143E+04   -.901E-01 0.901E-01 -.463E+01
   -.111E+02 -.290E+02 -.147E+04   0.111E+02 0.291E+02 0.148E+04   0.168E-01 -.547E-01 -.511E+01
   0.387E+01 -.362E+01 -.446E+03   -.384E+01 0.366E+01 0.445E+03   -.907E-02 -.166E-01 0.287E+00
   -.383E+01 -.383E+01 -.436E+03   0.389E+01 0.389E+01 0.436E+03   -.379E-01 -.379E-01 0.252E+00
   0.631E+00 0.781E+00 0.555E+03   -.599E+00 -.744E+00 -.555E+03   -.304E-02 -.853E-02 -.782E-01
   -.786E+00 0.844E+00 0.556E+03   0.836E+00 -.836E+00 -.556E+03   -.292E-01 0.292E-01 -.149E+00
   0.185E+00 0.185E+00 0.157E+04   -.152E+00 -.152E+00 -.158E+04   -.577E-02 -.577E-02 0.348E+01
   -.128E+00 0.181E+00 0.157E+04   0.159E+00 -.149E+00 -.158E+04   -.295E-02 -.411E-02 0.349E+01
   0.112E+02 0.290E+02 -.147E+04   -.111E+02 -.291E+02 0.148E+04   -.168E-01 0.547E-01 -.511E+01
   -.361E+02 0.361E+02 -.143E+04   0.360E+02 -.360E+02 0.143E+04   0.901E-01 -.901E-01 -.463E+01
   0.389E+01 0.389E+01 -.436E+03   -.389E+01 -.389E+01 0.436E+03   0.379E-01 0.379E-01 0.252E+00
   -.381E+01 0.367E+01 -.446E+03   0.383E+01 -.366E+01 0.445E+03   0.907E-02 0.166E-01 0.287E+00
 -----------------------------------------------------------------------------------------------
   0.121E+01 0.121E+01 0.222E+02   0.156E-12 0.117E-12 0.796E-12   0.106E-15 -.555E-16 -.222E+02
 
 
 POSITION                                       TOTAL-FORCE (eV/Angst)
 -----------------------------------------------------------------------------------
      5.27564      5.27564     16.45220         0.000000      0.000000      0.042835
      4.44117      4.44117     16.48214         0.173108      0.173108      0.006619
      6.11005      6.11005     16.48213        -0.173108     -0.173108      0.006619
      0.00000      6.33074      7.50000        -0.000013     -0.000060      0.375357
      2.11025      0.00000      7.50000         0.000117     -0.000117      0.378641
      0.00000      0.00000      9.61025         0.005246      0.005246      0.095238
      2.11025      6.33074      9.61025         0.013403      0.003639      0.097698
      0.00144      6.33129     11.73478        -0.001211      0.000917     -0.014803
      2.11077      8.44047     11.73501         0.000089     -0.000089     -0.017361
      0.00169      0.00169     13.84027        -0.000765     -0.000765     -0.042892
      2.10880      6.32896     13.83842        -0.009625      0.003207     -0.043628
      0.00000      2.11025      7.50000        -0.000117      0.000117      0.378641
      2.11025      4.22049      7.50000         0.000013      0.000060      0.375357
      0.00000      4.22049      9.61025        -0.013403     -0.003639      0.097698
      2.11025      2.11025      9.61025        -0.005246     -0.005246      0.095238
      8.44047      2.11077     11.73501        -0.000089      0.000089     -0.017361
      2.10881      4.21994     11.73478         0.001211     -0.000917     -0.014803
      0.00145      4.22227     13.83842         0.009625     -0.003207     -0.043628
      2.10856      2.10856     13.84027         0.000765      0.000765     -0.042892
      4.22049      6.33074      7.50000         0.000359     -0.000359      0.379720
      6.33074      0.00000      7.50000        -0.000060     -0.000013      0.375357
      4.22049      0.00000      9.61025        -0.003639     -0.013403      0.097698
      6.33074      6.33074      9.61025        -0.005044     -0.005044      0.100841
      4.22277      6.32846     11.73895         0.000029     -0.000029     -0.016868
      6.33129      0.00144     11.73478         0.000917     -0.001211     -0.014803
      4.22227      0.00145     13.83842        -0.003207      0.009625     -0.043628
      6.34693      6.34693     13.84609         0.016920      0.016920     -0.044328
      4.22049      2.11025      7.50000         0.000060      0.000013      0.375357
      6.33074      4.22049      7.50000        -0.000359      0.000359      0.379720
      4.22049      4.22049      9.61025         0.005044      0.005044      0.100841
      6.33074      2.11025      9.61025         0.003639      0.013403      0.097698
      4.21994      2.10881     11.73478        -0.000917      0.001211     -0.014803
      6.32846      4.22277     11.73895        -0.000029      0.000029     -0.016868
      4.20430      4.20430     13.84610        -0.016920     -0.016920     -0.044328
      6.32896      2.10880     13.83842         0.003207     -0.009625     -0.043628
      0.00000      6.33074      9.61025         0.001554      0.000517      0.083591
      2.11025      0.00000      9.61025         0.001831     -0.001831      0.072176
      0.00000      0.00000      7.50000        -0.000775     -0.000775     -0.517507
      2.11025      6.33074      7.50000        -0.001203     -0.000851     -0.517657
      0.00558      6.33223     13.87628         0.006467      0.000718      0.014413
      2.11167      8.43956     13.88755        -0.002497      0.002497      0.015019
      0.00097      0.00097     11.72834         0.000661      0.000661      0.001636
      2.11366      6.33058     11.72929         0.000577      0.000479      0.003546
      0.00000      2.11025      9.61025        -0.001831      0.001831      0.072176
      2.11025      4.22049      9.61025        -0.001554     -0.000517      0.083591
      0.00000      4.22049      7.50000         0.001203      0.000851     -0.517657
      2.11025      2.11025      7.50000         0.000775      0.000775     -0.517507
      8.43956      2.11167     13.88755         0.002497     -0.002497      0.015019
      2.10467      4.21900     13.87628        -0.006467     -0.000718      0.014413
      8.43757      4.22065     11.72929        -0.000577     -0.000479      0.003546
      2.10928      2.10928     11.72834        -0.000661     -0.000661      0.001636
      4.22049      6.33074      9.61025         0.007807     -0.007807      0.081248
      6.33074      0.00000      9.61025         0.000517      0.001554      0.083591
      4.22049      0.00000      7.50000         0.000851      0.001203     -0.517657
      6.33074      6.33074      7.50000         0.001688      0.001688     -0.517994
      4.22320      6.32804     13.90361        -0.013007      0.013007      0.001845
      6.33223      0.00558     13.87628         0.000718      0.006467      0.014413
      4.22065      8.43757     11.72929        -0.000479     -0.000577      0.003546
      6.33049      6.33049     11.73277        -0.002087     -0.002087      0.005515
      4.22049      2.11025      9.61025        -0.000517     -0.001554      0.083591
      6.33074      4.22049      9.61025        -0.007807      0.007807      0.081248
      4.22049      4.22049      7.50000        -0.001688     -0.001688     -0.517994
      6.33074      2.11025      7.50000        -0.000851     -0.001203     -0.517657
      4.21900      2.10467     13.87628        -0.000718     -0.006467      0.014413
      6.32804      4.22320     13.90361         0.013007     -0.013007      0.001845
      4.22074      4.22074     11.73277         0.002087      0.002087      0.005515
      6.33058      2.11366     11.72929         0.000479      0.000577      0.003546
 -----------------------------------------------------------------------------------
    total drift:                                1.209435      1.209922     -0.007157


--------------------------------------------------------------------------------------------------------



  FREE ENERGIE OF THE ION-ELECTRON SYSTEM (eV)
  ---------------------------------------------------
  free  energy   TOTEN  =      -404.69636008 eV

  energy  without entropy=     -404.69636008  energy(sigma->0) =     -404.69636008
 


--------------------------------------------------------------------------------------------------------


    POTLOK:  cpu time      0.1134: real time      0.1137


--------------------------------------------------------------------------------------------------------


     LOOP+:  cpu time     26.5710: real time     26.7373
    4ORBIT:  cpu time      0.0000: real time      0.0000

 total amount of memory used by VASP MPI-rank0    52106. kBytes
=======================================================================

   base      :      30000. kBytes
   nonl-proj :       6236. kBytes
   fftplans  :       3085. kBytes
   grid      :       5664. kBytes
   one-center:         32. kBytes
   wavefun   :       7089. kBytes
 
  
  
 General timing and accounting informations for this job:
 ========================================================
  
                  Total CPU time used (sec):       29.054
                            User time (sec):       28.433
                          System time (sec):        0.620
                         Elapsed time (sec):       29.954
  
                   Maximum memory used (kb):      336968.
                   Average memory used (kb):          N/A
  
                          Minor page faults:        65345
                          Major page faults:          132
                 Voluntary context switches:         1815
