 vasp.6.3.0 20Jan22 (build Mar 11 2022 13:48:16) complex                        
  
 executed on             LinuxIFC date 2024.01.22  07:30:32
 running on  304 total cores
 distrk:  each k-point on  304 cores,    1 groups
 distr:  one band on NCORE=   2 cores,  152 groups


--------------------------------------------------------------------------------------------------------


 INCAR:
   SYSTEM = TiO2
   ISMEAR = 0
   SIGMA = 0.05
   EDIFF = 1E-5
   ALGO = ALL
   ISTART = 0
   IBRION = -1
   NSW = 0
   ISYM = 0
   ISIF = 2
   EDIFFG = -0.01
   DIPOL = 0.5 0.5 0.5
   IDIPOL = 3
   LDIPOL = .TRUE.
   GGA = MK
   LUSE_VDW = .TRUE.
   PARAM1 = 0.1234
   PARAM2 = 0.711357
   ZAB_VDW = -1.8867
   AGGAC = 0.0
   ENCUT = 600
   PREC = Accurate
   LASPH = .TRUE.
   LREAL = .FALSE.
   ISPIN = 1
   NELM = 200
   NELMIN = 8
   NCORE = 2
   KPAR = 1
   LWAVE = .FALSE.
   LCHARG = .FALSE.

 POTCAR:    PAW_PBE Ti_pv 07Sep2000               
 POTCAR:    PAW_PBE O 08Apr2002                   
 -----------------------------------------------------------------------------
|                                                                             |
|           W    W    AA    RRRRR   N    N  II  N    N   GGGG   !!!           |
|           W    W   A  A   R    R  NN   N  II  NN   N  G    G  !!!           |
|           W    W  A    A  R    R  N N  N  II  N N  N  G       !!!           |
|           W WW W  AAAAAA  RRRRR   N  N N  II  N  N N  G  GGG   !            |
|           WW  WW  A    A  R   R   N   NN  II  N   NN  G    G                |
|           W    W  A    A  R    R  N    N  II  N    N   GGGG   !!!           |
|                                                                             |
|     For optimal performance we recommend to set                             |
|       NCORE = 2 up to number-of-cores-per-socket                            |
|     NCORE specifies how many cores store one orbital (NPAR=cpu/NCORE).      |
|     This setting can greatly improve the performance of VASP for DFT.       |
|     The default, NCORE=1 might be grossly inefficient on modern             |
|     multi-core architectures or massively parallel machines. Do your        |
|     own testing! More info at https://www.vasp.at/wiki/index.php/NCORE      |
|     Unfortunately you need to use the default for GW and RPA                |
|     calculations (for HF NCORE is supported but not extensively tested      |
|     yet).                                                                   |
|                                                                             |
 -----------------------------------------------------------------------------

 -----------------------------------------------------------------------------
|                                                                             |
|               ----> ADVICE to this user running VASP <----                  |
|                                                                             |
|     You have switched on vdW-DFT.                                           |
|     This routine was written and supplied by Jiri Klimes. We recommend      |
|     that you carefully read and cite the following publications:            |
|       J. Klimes, D.R. Bowler, A. Michelides                                 |
|          J. Phys.: Cond Matt. 22 022201 (2010)                              |
|       J. Klimes, D.R. Bowler, A. Michelides                                 |
|          Phys. Rev. B. 83, 195131 (2011)                                    |
|     and references therein.                                                 |
|                                                                             |
 -----------------------------------------------------------------------------

 POTCAR:    PAW_PBE Ti_pv 07Sep2000               
   SHA256 =  f757a1b2c6d082f4c628fa3d987464a8763bf92e53844ac0500b0e2ddc9ce5c0 Ti_pv/POTCAR          
   COPYR  = (c) Copyright 07Sep2000 Georg Kresse                                                    
   COPYR  = This file is part of the software VASP. Any use, copying, and all other rights are regul
   COPYR  = If you do not have a valid VASP license, you may not use, copy or distribute this file. 
   VRHFIN =Ti: d3 s1                                                                                
   LEXCH  = PE                                                                                      
   EATOM  =  1042.5995 eV,   76.6289 Ry                                                             
                                                                                                    
   TITEL  = PAW_PBE Ti_pv 07Sep2000                                                                 
   LULTRA =        F    use ultrasoft PP ?                                                          
   IUNSCR =        1    unscreen: 0-lin 1-nonlin 2-no                                               
   RPACOR =    2.200    partial core radius                                                         
   POMASS =   47.880; ZVAL   =   10.000    mass and valenz                                          
   RCORE  =    2.500    outmost cutoff radius                                                       
   RWIGS  =    2.500; RWIGS  =    1.323    wigner-seitz radius (au A)                               
   ENMAX  =  222.335; ENMIN  =  166.751 eV                                                          
   RCLOC  =    1.701    cutoff for local pot                                                        
   LCOR   =        T    correct aug charges                                                         
   LPAW   =        T    paw PP                                                                      
   EAUG   =  482.848                                                                                
   DEXC   =    0.000                                                                                
   RMAX   =    2.564    core radius for proj-oper                                                   
   RAUG   =    1.300    factor for augmentation sphere                                              
   RDEP   =    2.538    radius for radial grids                                                     
   RDEPT  =    1.952    core radius for aug-charge                                                  
                                                                                                    
   Atomic configuration                                                                             
    8 entries                                                                                       
     n  l   j            E        occ.                                                              
     1  0  0.50     -4865.3608   2.0000                                                             
     2  0  0.50      -533.1368   2.0000                                                             
     2  1  1.50      -440.5031   6.0000                                                             
     3  0  0.50       -59.3186   2.0000                                                             
     3  1  1.50       -35.7012   6.0000                                                             
     3  2  2.50        -1.9157   3.0000                                                             
     4  0  0.50        -3.7291   1.0000                                                             
     4  3  2.50        -1.3606   0.0000                                                             
   Description                                                                                      
     l       E           TYP  RCUT    TYP  RCUT                                                     
     1    -35.7012140     23  2.300                                                                 
     1     -1.3605826     23  2.300                                                                 
     2     -1.9156996     23  2.500                                                                 
     2     -0.4063033     23  2.500                                                                 
     0     -3.7290856     23  2.500                                                                 
     0     20.4087390     23  2.500                                                                 
  local pseudopotential read in
  partial core-charges read in
  partial kinetic energy density read in
  atomic valenz-charges read in
  non local Contribution for L=           1  read in
    real space projection operators read in
  non local Contribution for L=           1  read in
    real space projection operators read in
  non local Contribution for L=           2  read in
    real space projection operators read in
  non local Contribution for L=           2  read in
    real space projection operators read in
  non local Contribution for L=           0  read in
    real space projection operators read in
  non local Contribution for L=           0  read in
    real space projection operators read in
    PAW grid and wavefunctions read in
 
   number of l-projection  operators is LMAX  =           6
   number of lm-projection operators is LMMAX =          18
 
 POTCAR:    PAW_PBE O 08Apr2002                   
   SHA256 =  818f92134a0a090dccd8ba1447fa70422a3b330e708bb4f08108d8ae51209ddf O/POTCAR              
   COPYR  = (c) Copyright 08Apr2002 Georg Kresse                                                    
   COPYR  = This file is part of the software VASP. Any use, copying, and all other rights are regul
   COPYR  = If you do not have a valid VASP license, you may not use, copy or distribute this file. 
   VRHFIN =O: s2p4                                                                                  
   LEXCH  = PE                                                                                      
   EATOM  =   432.3788 eV,   31.7789 Ry                                                             
                                                                                                    
   TITEL  = PAW_PBE O 08Apr2002                                                                     
   LULTRA =        F    use ultrasoft PP ?                                                          
   IUNSCR =        1    unscreen: 0-lin 1-nonlin 2-no                                               
   RPACOR =    1.200    partial core radius                                                         
   POMASS =   16.000; ZVAL   =    6.000    mass and valenz                                          
   RCORE  =    1.520    outmost cutoff radius                                                       
   RWIGS  =    1.550; RWIGS  =    0.820    wigner-seitz radius (au A)                               
   ENMAX  =  400.000; ENMIN  =  300.000 eV                                                          
   ICORE  =        2    local potential                                                             
   LCOR   =        T    correct aug charges                                                         
   LPAW   =        T    paw PP                                                                      
   EAUG   =  605.392                                                                                
   DEXC   =    0.000                                                                                
   RMAX   =    1.553    core radius for proj-oper                                                   
   RAUG   =    1.300    factor for augmentation sphere                                              
   RDEP   =    1.550    radius for radial grids                                                     
   RDEPT  =    1.329    core radius for aug-charge                                                  
                                                                                                    
   Atomic configuration                                                                             
    4 entries                                                                                       
     n  l   j            E        occ.                                                              
     1  0  0.50      -514.6923   2.0000                                                             
     2  0  0.50       -23.9615   2.0000                                                             
     2  1  0.50        -9.0305   4.0000                                                             
     3  2  1.50        -9.5241   0.0000                                                             
   Description                                                                                      
     l       E           TYP  RCUT    TYP  RCUT                                                     
     0    -23.9615318     23  1.200                                                                 
     0     -9.5240782     23  1.200                                                                 
     1     -9.0304911     23  1.520                                                                 
     1      8.1634956     23  1.520                                                                 
     2     -9.5240782      7  1.500                                                                 
  local pseudopotential read in
  partial core-charges read in
  partial kinetic energy density read in
  kinetic energy density of atom read in
  atomic valenz-charges read in
  non local Contribution for L=           0  read in
    real space projection operators read in
  non local Contribution for L=           0  read in
    real space projection operators read in
  non local Contribution for L=           1  read in
    real space projection operators read in
  non local Contribution for L=           1  read in
    real space projection operators read in
    PAW grid and wavefunctions read in
 
   number of l-projection  operators is LMAX  =           4
   number of lm-projection operators is LMMAX =           8
 
 -----------------------------------------------------------------------------
|                                                                             |
|               ----> ADVICE to this user running VASP <----                  |
|                                                                             |
|     You have a (more or less) 'large supercell' and for larger cells it     |
|     might be more efficient to use real-space projection operators.         |
|     Therefore, try LREAL= Auto in the INCAR file.                           |
|     Mind: For very accurate calculation, you might also keep the            |
|     reciprocal projection scheme (i.e. LREAL=.FALSE.).                      |
|                                                                             |
 -----------------------------------------------------------------------------

 -----------------------------------------------------------------------------
|                                                                             |
|               ----> ADVICE to this user running VASP <----                  |
|                                                                             |
|     You enforced a specific xc type in the INCAR file but a different       |
|     type was found in the POTCAR file.                                      |
|     I HOPE YOU KNOW WHAT YOU ARE DOING!                                     |
|                                                                             |
 -----------------------------------------------------------------------------

  PAW_PBE Ti_pv 07Sep2000               :
 energy of atom  1       EATOM=-1042.5995
 kinetic energy error for atom=    0.0007 (will be added to EATOM!!)
  PAW_PBE O 08Apr2002                   :
 energy of atom  2       EATOM= -432.3788
 kinetic energy error for atom=    0.0168 (will be added to EATOM!!)
 
 
 POSCAR: Ti  O
  positions in direct lattice
  No initial velocities read in
 exchange correlation table for  LEXCH =       43
   RHO(1)=    0.500       N(1)  =     2000
   RHO(2)=  100.500       N(2)  =     4000
 


--------------------------------------------------------------------------------------------------------


 ion  position               nearest neighbor table
   1  0.750  0.625  0.287-  82 1.95 142 1.95 141 1.95  81 1.95  84 1.97 163 1.97  11 2.96  31 2.96

   2  0.000  0.750  0.287-  83 1.95  84 1.95 103 1.95 104 1.95  85 1.97  32 2.96  12 2.96
   3  0.000  0.625  0.394-  85 1.95  86 1.95 145 1.95 146 1.95  87 1.97  88 1.97  13 2.96  33 2.96

   4  0.750  0.750  0.394-  87 1.95 107 1.95 168 1.95 188 1.95  89 1.97  82 1.97  14 2.96  34 2.96

   5  0.750  0.625  0.500-  89 1.95  90 1.95 149 1.95 150 1.95  92 1.97 171 1.97  15 2.96  35 2.96

   6  0.000  0.750  0.500-  91 1.95  92 1.95 111 1.95 112 1.95  86 1.97  93 1.99  16 2.96  36 2.96

   7  0.000  0.625  0.604- 153 1.90  93 1.90  96 1.95  95 1.95  94 2.01 154 2.01  17 2.96  37 2.96

   8  0.750  0.750  0.610-  97 1.87 196 1.97 176 1.97  95 1.97 115 1.97  90 2.09  18 2.96  38 2.96

   9  0.750  0.625  0.719-  98 1.83 158 1.83 100 2.02 179 2.03  97 2.09 157 2.09  19 2.96  39 2.96

  10  0.000  0.750  0.708-  94 1.81 119 1.94 120 1.94  99 1.94 100 1.94  20 2.96  40 2.96
  11  0.750  0.875  0.287-  82 1.95 102 1.95 101 1.95  81 1.95 104 1.97 183 1.97   1 2.96  21 2.96

  12  0.000  0.000  0.287- 103 1.95 104 1.95 123 1.95 124 1.95 105 1.97  22 2.96   2 2.96
  13  0.000  0.875  0.394-  85 1.95  86 1.95 105 1.95 106 1.95 107 1.97 108 1.97   3 2.96  23 2.96

  14  0.750  0.000  0.394- 107 1.95 127 1.95 188 1.95 208 1.95 109 1.97 102 1.97   4 2.96  24 2.96

  15  0.750  0.875  0.500-  89 1.95  90 1.95 109 1.95 110 1.95 112 1.97 191 1.97   5 2.96  25 2.96

  16  0.000  0.000  0.500- 111 1.95 112 1.95 131 1.95 132 1.95 106 1.97 113 1.99   6 2.96  26 2.96

  17  0.000  0.875  0.604-  93 1.90 113 1.90 115 1.95 116 1.95 114 2.01  94 2.01  27 2.96   7 2.96

  18  0.750  0.000  0.610- 117 1.87 216 1.97 196 1.97 135 1.97 115 1.97 110 2.09  28 2.96   8 2.96

  19  0.750  0.875  0.720- 118 1.83  98 1.83 199 2.02 120 2.03 117 2.09  97 2.09   9 2.96  29 2.96

  20  0.000  1.000  0.708- 114 1.81 120 1.94 139 1.94 140 1.94 119 1.94  30 2.96  10 2.96
  21  0.750  0.125  0.287- 102 1.95 122 1.95 121 1.95 101 1.95 124 1.97 203 1.97  11 2.96  31 2.96

  22  0.000  0.250  0.287- 123 1.95 124 1.95 143 1.95 144 1.95 125 1.97  32 2.96  12 2.96
  23  0.000  0.125  0.394- 105 1.95 106 1.95 125 1.95 126 1.95 127 1.97 128 1.97  13 2.96  33 2.96

  24  0.750  0.250  0.394- 127 1.95 147 1.95 208 1.95 228 1.95 129 1.97 122 1.97  14 2.96  34 2.96

  25  0.750  0.125  0.500- 109 1.95 110 1.95 129 1.95 130 1.95 132 1.97 211 1.97  15 2.96  35 2.96

  26  0.000  0.250  0.500- 131 1.95 132 1.95 151 1.95 152 1.95 126 1.97 133 1.99  16 2.96  36 2.96

  27  1.000  0.125  0.604- 133 1.90 113 1.90 136 1.95 135 1.95 114 2.01 134 2.01  17 2.96  37 2.96

  28  0.750  0.250  0.610- 137 1.87 216 1.97 236 1.97 155 1.97 135 1.97 130 2.09  18 2.96  38 2.96

  29  0.750  0.125  0.720- 118 1.83 138 1.83 219 2.02 140 2.03 117 2.09 137 2.09  39 2.96  19 2.96

  30  1.000  0.250  0.708- 134 1.81 140 1.94 139 1.94 160 1.94 159 1.94  20 2.96  40 2.96
  31  0.750  0.375  0.287- 122 1.95 142 1.95 141 1.95 121 1.95 144 1.97 223 1.97   1 2.96  21 2.96

  32  0.000  0.500  0.287-  83 1.95  84 1.95 143 1.95 144 1.95 145 1.97  22 2.96   2 2.96
  33  0.000  0.375  0.394- 125 1.95 126 1.95 145 1.95 146 1.95 147 1.97 148 1.97   3 2.96  23 2.96

  34  0.750  0.500  0.394-  87 1.95 147 1.95 168 1.95 228 1.95 142 1.97 149 1.97   4 2.96  24 2.96

  35  0.750  0.375  0.500- 129 1.95 130 1.95 149 1.95 150 1.95 152 1.97 231 1.97   5 2.96  25 2.96

  36  0.000  0.500  0.500-  91 1.95  92 1.95 151 1.95 152 1.95 146 1.97 153 1.99   6 2.96  26 2.96

  37  1.000  0.375  0.604- 153 1.90 133 1.90 155 1.95 156 1.95 134 2.01 154 2.01  27 2.96   7 2.96

  38  0.750  0.500  0.610- 157 1.87 236 1.97 176 1.97  95 1.97 155 1.97 150 2.09  28 2.96   8 2.96

  39  0.750  0.375  0.720- 138 1.83 158 1.83 160 2.03 239 2.03 137 2.09 157 2.09  29 2.96   9 2.96

  40  0.000  0.500  0.708- 154 1.81 159 1.94 100 1.94  99 1.94 160 1.94  30 2.96  10 2.96
  41  0.250  0.625  0.287- 162 1.95 222 1.95 221 1.95 161 1.95  83 1.97 164 1.97  51 2.96  71 2.96

  42  0.500  0.750  0.287- 163 1.95 164 1.95 183 1.95 184 1.95 165 1.97  72 2.96  52 2.96
  43  0.500  0.625  0.394- 165 1.95 166 1.95 225 1.95 226 1.95 167 1.97 168 1.97  53 2.96  73 2.96

  44  0.250  0.750  0.394-  88 1.95 108 1.95 167 1.95 187 1.95 169 1.97 162 1.97  54 2.96  74 2.96

  45  0.250  0.625  0.500- 169 1.95 170 1.95 229 1.95 230 1.95  91 1.97 172 1.97  55 2.96  75 2.96

  46  0.500  0.750  0.500- 171 1.95 172 1.95 191 1.95 192 1.95 166 1.97 173 1.99  56 2.96  76 2.96

  47  0.500  0.624  0.605- 233 1.90 173 1.91 176 1.95 175 1.95 174 2.00 234 2.01  77 2.95  57 2.96

  48  0.250  0.750  0.610- 177 1.87 195 1.97 175 1.97  96 1.97 116 1.97 170 2.09  58 2.96  78 2.96

  49  0.250  0.625  0.720- 178 1.83 238 1.83  99 2.03 180 2.03 177 2.09 237 2.09  59 2.96  79 2.96

  50  0.500  0.750  0.708- 174 1.81 179 1.93 180 1.94 199 1.94 200 1.94  60 2.96  80 2.96
  51  0.250  0.875  0.287- 162 1.95 182 1.95 181 1.95 161 1.95 103 1.97 184 1.97  41 2.96  61 2.96

  52  0.500  0.000  0.287- 183 1.95 184 1.95 203 1.95 204 1.95 185 1.97  62 2.96  42 2.96
  53  0.500  0.875  0.394- 165 1.95 166 1.95 185 1.95 186 1.95 187 1.97 188 1.97  43 2.96  63 2.96

  54  0.250  0.000  0.394- 108 1.95 128 1.95 187 1.95 207 1.95 189 1.97 182 1.97  44 2.96  64 2.96

  55  0.250  0.875  0.500- 169 1.95 170 1.95 189 1.95 190 1.95 111 1.97 192 1.97  45 2.96  65 2.96

  56  0.500  0.000  0.500- 191 1.95 192 1.95 211 1.95 212 1.95 186 1.97 193 1.98  46 2.96  66 2.96

  57  0.500  0.875  0.604- 173 1.90 193 1.90 196 1.95 195 1.95 174 2.00 194 2.01  47 2.96  67 2.96

  58  0.250  1.000  0.610- 197 1.87 195 1.97 215 1.97 116 1.97 136 1.97 190 2.09  48 2.96  68 2.96

  59  0.250  0.875  0.720- 198 1.83 178 1.83 200 2.02 119 2.03 197 2.09 177 2.09  49 2.96  69 2.96

  60  0.500  1.000  0.708- 194 1.81 200 1.94 219 1.94 220 1.94 199 1.94  70 2.96  50 2.96
  61  0.250  0.125  0.287- 182 1.95 202 1.95 201 1.95 181 1.95 123 1.97 204 1.97  51 2.96  71 2.96

  62  0.500  0.250  0.287- 203 1.95 204 1.95 223 1.95 224 1.95 205 1.97  72 2.96  52 2.96
  63  0.500  0.125  0.394- 185 1.95 186 1.95 205 1.95 206 1.95 207 1.97 208 1.97  53 2.96  73 2.96

  64  0.250  0.250  0.394- 128 1.95 148 1.95 207 1.95 227 1.95 209 1.97 202 1.97  54 2.96  74 2.96

  65  0.250  0.125  0.500- 189 1.95 190 1.95 209 1.95 210 1.95 131 1.97 212 1.97  55 2.96  75 2.96

  66  0.500  0.250  0.500- 211 1.95 212 1.95 231 1.95 232 1.95 206 1.97 213 1.99  56 2.96  76 2.96

  67  0.500  0.125  0.604- 213 1.90 193 1.90 215 1.95 216 1.95 214 2.00 194 2.01  77 2.96  57 2.96

  68  0.250  0.250  0.610- 217 1.87 215 1.97 235 1.97 156 1.97 136 1.97 210 2.09  58 2.96  78 2.96

  69  0.250  0.125  0.720- 198 1.83 218 1.83 220 2.02 139 2.03 197 2.09 217 2.09  79 2.96  59 2.96

  70  0.500  0.250  0.708- 214 1.81 240 1.93 239 1.94 220 1.94 219 1.94  60 2.96  80 2.96
  71  0.250  0.375  0.287- 202 1.95 222 1.95 221 1.95 201 1.95 143 1.97 224 1.97  41 2.96  61 2.96

  72  0.500  0.500  0.287- 163 1.95 164 1.95 223 1.95 224 1.95 225 1.97  62 2.96  42 2.96
  73  0.500  0.375  0.394- 205 1.95 206 1.95 225 1.95 226 1.95 227 1.97 228 1.97  43 2.96  63 2.96

  74  0.250  0.500  0.394-  88 1.95 148 1.95 167 1.95 227 1.95 222 1.97 229 1.97  44 2.96  64 2.96

  75  0.250  0.375  0.500- 209 1.95 210 1.95 229 1.95 230 1.95 151 1.97 232 1.97  45 2.96  65 2.96

  76  0.500  0.500  0.500- 171 1.95 172 1.95 231 1.95 232 1.95 226 1.97 233 1.99  46 2.96  66 2.96

  77  0.500  0.376  0.605- 233 1.90 213 1.91 235 1.95 236 1.95 214 2.00 234 2.01  47 2.95  67 2.96

  78  0.250  0.500  0.610- 237 1.87 175 1.97 235 1.97 156 1.97  96 1.97 230 2.09  48 2.96  68 2.96

  79  0.250  0.375  0.719- 218 1.83 238 1.83 159 2.02 240 2.03 217 2.09 237 2.09  69 2.96  49 2.96

  80  0.500  0.500  0.709- 234 1.83 239 1.94 180 1.94 179 1.94 240 1.94  50 2.96  70 2.96
  81  0.750  0.750  0.246-   1 1.95  11 1.95
  82  0.750  0.750  0.329-   1 1.95  11 1.95   4 1.97
  83  0.098  0.625  0.287-   2 1.95  32 1.95  41 1.97
  84  0.902  0.625  0.287-   2 1.95  32 1.95   1 1.97
  85  0.000  0.750  0.352-   3 1.95  13 1.95   2 1.97
  86  0.000  0.750  0.435-   3 1.95  13 1.95   6 1.97
  87  0.848  0.625  0.394-   4 1.95  34 1.95   3 1.97
  88  0.152  0.625  0.394-  44 1.95  74 1.95   3 1.97
  89  0.750  0.750  0.458-   5 1.95  15 1.95   4 1.97
  90  0.750  0.750  0.542-   5 1.95  15 1.95   8 2.09
  91  0.098  0.625  0.500-   6 1.95  36 1.95  45 1.97
  92  0.902  0.625  0.500-   6 1.95  36 1.95   5 1.97
  93  0.000  0.750  0.565-  17 1.90   7 1.90   6 1.99
  94  0.000  0.750  0.649-  10 1.81   7 2.01  17 2.01
  95  0.850  0.625  0.607-   7 1.95   8 1.97  38 1.97
  96  0.150  0.625  0.607-   7 1.95  48 1.97  78 1.97
  97  0.751  0.750  0.671-   8 1.87   9 2.09  19 2.09
  98  0.750  0.750  0.755-   9 1.83  19 1.83
  99  0.094  0.625  0.719-  40 1.94  10 1.94  49 2.03
 100  0.906  0.625  0.719-  40 1.94  10 1.94   9 2.02
 101  0.750  0.000  0.246-  11 1.95  21 1.95
 102  0.750  0.000  0.329-  11 1.95  21 1.95  14 1.97
 103  0.098  0.875  0.287-   2 1.95  12 1.95  51 1.97
 104  0.902  0.875  0.287-   2 1.95  12 1.95  11 1.97
 105  0.000  0.000  0.352-  13 1.95  23 1.95  12 1.97
 106  0.000  0.000  0.435-  13 1.95  23 1.95  16 1.97
 107  0.848  0.875  0.394-   4 1.95  14 1.95  13 1.97
 108  0.152  0.875  0.394-  44 1.95  54 1.95  13 1.97
 109  0.750  0.000  0.458-  15 1.95  25 1.95  14 1.97
 110  0.750  0.000  0.542-  15 1.95  25 1.95  18 2.09
 111  0.098  0.875  0.500-   6 1.95  16 1.95  55 1.97
 112  0.902  0.875  0.500-   6 1.95  16 1.95  15 1.97
 113  0.000  1.000  0.565-  27 1.90  17 1.90  16 1.99
 114  0.000  1.000  0.649-  20 1.81  17 2.01  27 2.01
 115  0.850  0.875  0.607-  17 1.95  18 1.97   8 1.97
 116  0.150  0.875  0.607-  17 1.95  58 1.97  48 1.97
 117  0.750  0.000  0.671-  18 1.87  19 2.09  29 2.09
 118  0.750  0.000  0.755-  19 1.83  29 1.83
 119  0.094  0.875  0.718-  10 1.94  20 1.94  59 2.03
 120  0.906  0.875  0.718-  10 1.94  20 1.94  19 2.03
 121  0.750  0.250  0.246-  21 1.95  31 1.95
 122  0.750  0.250  0.329-  21 1.95  31 1.95  24 1.97
 123  0.098  0.125  0.287-  12 1.95  22 1.95  61 1.97
 124  0.902  0.125  0.287-  12 1.95  22 1.95  21 1.97
 125  0.000  0.250  0.352-  23 1.95  33 1.95  22 1.97
 126  0.000  0.250  0.435-  23 1.95  33 1.95  26 1.97
 127  0.848  0.125  0.394-  14 1.95  24 1.95  23 1.97
 128  0.152  0.125  0.394-  54 1.95  64 1.95  23 1.97
 129  0.750  0.250  0.458-  25 1.95  35 1.95  24 1.97
 130  0.750  0.250  0.542-  25 1.95  35 1.95  28 2.09
 131  0.098  0.125  0.500-  16 1.95  26 1.95  65 1.97
 132  0.902  0.125  0.500-  16 1.95  26 1.95  25 1.97
 133  1.000  0.250  0.565-  27 1.90  37 1.90  26 1.99
 134  1.000  0.250  0.649-  30 1.81  37 2.01  27 2.01
 135  0.850  0.125  0.607-  27 1.95  18 1.97  28 1.97
 136  0.150  0.125  0.607-  27 1.95  58 1.97  68 1.97
 137  0.750  0.250  0.671-  28 1.87  39 2.09  29 2.09
 138  0.750  0.250  0.755-  39 1.83  29 1.83
 139  0.094  0.125  0.718-  30 1.94  20 1.94  69 2.03
 140  0.906  0.125  0.718-  30 1.94  20 1.94  29 2.03
 141  0.750  0.500  0.246-   1 1.95  31 1.95
 142  0.750  0.500  0.329-   1 1.95  31 1.95  34 1.97
 143  0.098  0.375  0.287-  22 1.95  32 1.95  71 1.97
 144  0.902  0.375  0.287-  22 1.95  32 1.95  31 1.97
 145  0.000  0.500  0.352-   3 1.95  33 1.95  32 1.97
 146  0.000  0.500  0.435-   3 1.95  33 1.95  36 1.97
 147  0.848  0.375  0.394-  24 1.95  34 1.95  33 1.97
 148  0.152  0.375  0.394-  64 1.95  74 1.95  33 1.97
 149  0.750  0.500  0.458-   5 1.95  35 1.95  34 1.97
 150  0.750  0.500  0.542-   5 1.95  35 1.95  38 2.09
 151  0.098  0.375  0.500-  26 1.95  36 1.95  75 1.97
 152  0.902  0.375  0.500-  26 1.95  36 1.95  35 1.97
 153  0.000  0.500  0.565-  37 1.90   7 1.90  36 1.99
 154  0.000  0.500  0.649-  40 1.81  37 2.01   7 2.01
 155  0.850  0.375  0.607-  37 1.95  28 1.97  38 1.97
 156  0.150  0.375  0.607-  37 1.95  68 1.97  78 1.97
 157  0.751  0.500  0.671-  38 1.87  39 2.09   9 2.09
 158  0.749  0.500  0.755-  39 1.83   9 1.83
 159  0.094  0.375  0.719-  40 1.94  30 1.94  79 2.02
 160  0.906  0.375  0.719-  40 1.94  30 1.94  39 2.03
 161  0.250  0.750  0.246-  41 1.95  51 1.95
 162  0.250  0.750  0.329-  41 1.95  51 1.95  44 1.97
 163  0.598  0.625  0.287-  42 1.95  72 1.95   1 1.97
 164  0.402  0.625  0.287-  42 1.95  72 1.95  41 1.97
 165  0.500  0.750  0.352-  43 1.95  53 1.95  42 1.97
 166  0.500  0.750  0.435-  43 1.95  53 1.95  46 1.97
 167  0.348  0.625  0.394-  44 1.95  74 1.95  43 1.97
 168  0.652  0.625  0.394-   4 1.95  34 1.95  43 1.97
 169  0.250  0.750  0.458-  45 1.95  55 1.95  44 1.97
 170  0.250  0.750  0.542-  45 1.95  55 1.95  48 2.09
 171  0.598  0.625  0.500-  46 1.95  76 1.95   5 1.97
 172  0.402  0.625  0.500-  46 1.95  76 1.95  45 1.97
 173  0.500  0.749  0.565-  57 1.90  47 1.91  46 1.99
 174  0.500  0.751  0.648-  50 1.81  57 2.00  47 2.00
 175  0.350  0.625  0.607-  47 1.95  78 1.97  48 1.97
 176  0.650  0.625  0.607-  47 1.95  38 1.97   8 1.97
 177  0.250  0.750  0.671-  48 1.87  49 2.09  59 2.09
 178  0.250  0.750  0.755-  49 1.83  59 1.83
 179  0.594  0.626  0.718-  50 1.93  80 1.94   9 2.03
 180  0.406  0.626  0.718-  50 1.94  80 1.94  49 2.03
 181  0.250  0.000  0.246-  51 1.95  61 1.95
 182  0.250  0.000  0.329-  51 1.95  61 1.95  54 1.97
 183  0.598  0.875  0.287-  42 1.95  52 1.95  11 1.97
 184  0.402  0.875  0.287-  42 1.95  52 1.95  51 1.97
 185  0.500  0.000  0.352-  53 1.95  63 1.95  52 1.97
 186  0.500  0.000  0.435-  53 1.95  63 1.95  56 1.97
 187  0.348  0.875  0.394-  44 1.95  54 1.95  53 1.97
 188  0.652  0.875  0.394-   4 1.95  14 1.95  53 1.97
 189  0.250  0.000  0.458-  55 1.95  65 1.95  54 1.97
 190  0.250  0.000  0.542-  55 1.95  65 1.95  58 2.09
 191  0.598  0.875  0.500-  46 1.95  56 1.95  15 1.97
 192  0.402  0.875  0.500-  46 1.95  56 1.95  55 1.97
 193  0.500  1.000  0.565-  57 1.90  67 1.90  56 1.98
 194  0.500  1.000  0.648-  60 1.81  67 2.01  57 2.01
 195  0.350  0.875  0.607-  57 1.95  48 1.97  58 1.97
 196  0.650  0.875  0.607-  57 1.95   8 1.97  18 1.97
 197  0.250  1.000  0.671-  58 1.87  69 2.09  59 2.09
 198  0.250  1.000  0.755-  69 1.83  59 1.83
 199  0.594  0.875  0.718-  60 1.94  50 1.94  19 2.02
 200  0.406  0.875  0.718-  60 1.94  50 1.94  59 2.02
 201  0.250  0.250  0.246-  61 1.95  71 1.95
 202  0.250  0.250  0.329-  61 1.95  71 1.95  64 1.97
 203  0.598  0.125  0.287-  52 1.95  62 1.95  21 1.97
 204  0.402  0.125  0.287-  52 1.95  62 1.95  61 1.97
 205  0.500  0.250  0.352-  63 1.95  73 1.95  62 1.97
 206  0.500  0.250  0.435-  63 1.95  73 1.95  66 1.97
 207  0.348  0.125  0.394-  54 1.95  64 1.95  63 1.97
 208  0.652  0.125  0.394-  14 1.95  24 1.95  63 1.97
 209  0.250  0.250  0.458-  65 1.95  75 1.95  64 1.97
 210  0.250  0.250  0.542-  65 1.95  75 1.95  68 2.09
 211  0.598  0.125  0.500-  56 1.95  66 1.95  25 1.97
 212  0.402  0.125  0.500-  56 1.95  66 1.95  65 1.97
 213  0.500  0.251  0.565-  67 1.90  77 1.91  66 1.99
 214  0.500  0.249  0.648-  70 1.81  67 2.00  77 2.00
 215  0.350  0.125  0.607-  67 1.95  68 1.97  58 1.97
 216  0.650  0.125  0.607-  67 1.95  28 1.97  18 1.97
 217  0.249  0.250  0.671-  68 1.87  79 2.09  69 2.09
 218  0.250  0.250  0.755-  79 1.83  69 1.83
 219  0.594  0.125  0.718-  60 1.94  70 1.94  29 2.02
 220  0.406  0.125  0.718-  60 1.94  70 1.94  69 2.02
 221  0.250  0.500  0.246-  41 1.95  71 1.95
 222  0.250  0.500  0.329-  41 1.95  71 1.95  74 1.97
 223  0.598  0.375  0.287-  62 1.95  72 1.95  31 1.97
 224  0.402  0.375  0.287-  62 1.95  72 1.95  71 1.97
 225  0.500  0.500  0.352-  43 1.95  73 1.95  72 1.97
 226  0.500  0.500  0.435-  43 1.95  73 1.95  76 1.97
 227  0.348  0.375  0.394-  64 1.95  74 1.95  73 1.97
 228  0.652  0.375  0.394-  24 1.95  34 1.95  73 1.97
 229  0.250  0.500  0.458-  45 1.95  75 1.95  74 1.97
 230  0.250  0.500  0.542-  45 1.95  75 1.95  78 2.09
 231  0.598  0.375  0.500-  66 1.95  76 1.95  35 1.97
 232  0.402  0.375  0.500-  66 1.95  76 1.95  75 1.97
 233  0.500  0.500  0.565-  47 1.90  77 1.90  76 1.99
 234  0.500  0.500  0.649-  80 1.83  77 2.01  47 2.01
 235  0.350  0.375  0.607-  77 1.95  78 1.97  68 1.97
 236  0.650  0.375  0.607-  77 1.95  38 1.97  28 1.97
 237  0.249  0.500  0.671-  78 1.87  49 2.09  79 2.09
 238  0.251  0.500  0.755-  49 1.83  79 1.83
 239  0.594  0.374  0.718-  70 1.94  80 1.94  39 2.03
 240  0.406  0.374  0.718-  70 1.93  80 1.94  79 2.03
 

IMPORTANT INFORMATION: All symmetrisations will be switched off!
NOSYMM: (Re-)initialisation of all symmetry stuff for point group C_1.


----------------------------------------------------------------------------------------

                                     Primitive cell                                     

  volume of cell :    4687.8040

  direct lattice vectors                    reciprocal lattice vectors
    12.981773603  0.000000000  0.000000000     0.077031077  0.000000000  0.000000000
     0.000000000 11.829932295  0.000000000     0.000000000  0.084531338  0.000000000
     0.000000000  0.000000000 30.524823105     0.000000000  0.000000000  0.032760223

  length of vectors
    12.981773603 11.829932295 30.524823105     0.077031077  0.084531338  0.032760223

  position of ions in fractional coordinates (direct lattice)
     0.750000000  0.625000000  0.287357103
     0.000000000  0.750000000  0.287357103
     0.000000000  0.625000000  0.393678552
     0.750000000  0.750000000  0.393678552
     0.750000000  0.625000000  0.500000000
     0.000000000  0.750000000  0.500000000
     0.000010380  0.625012610  0.604155931
     0.750052984  0.750024092  0.610084122
     0.750326532  0.625215565  0.719468139
     0.000086866  0.750164744  0.708064681
     0.750000000  0.875000000  0.287357103
     0.000000000  0.000000000  0.287357103
     0.000000000  0.875000000  0.393678552
     0.750000000  0.000000000  0.393678552
     0.750000000  0.875000000  0.500000000
     0.000000000  0.000000000  0.500000000
     0.000000605  0.875015487  0.604168170
     0.750002029  0.000008864  0.610134916
     0.749849059  0.875074234  0.719664087
     0.000001867  0.999999916  0.708063545
     0.750000000  0.125000000  0.287357103
     0.000000000  0.250000000  0.287357103
     0.000000000  0.125000000  0.393678552
     0.750000000  0.250000000  0.393678552
     0.750000000  0.125000000  0.500000000
     0.000000000  0.250000000  0.500000000
     0.999998493  0.124984374  0.604168126
     0.750014360  0.249978650  0.610101233
     0.749744121  0.124964070  0.719674974
     0.999920320  0.249835089  0.708064612
     0.750000000  0.375000000  0.287357103
     0.000000000  0.500000000  0.287357103
     0.000000000  0.375000000  0.393678552
     0.750000000  0.500000000  0.393678552
     0.750000000  0.375000000  0.500000000
     0.000000000  0.500000000  0.500000000
     0.999988993  0.374987317  0.604155898
     0.750061695  0.499998786  0.610117495
     0.750189507  0.374846722  0.719514453
     0.000005549  0.499999895  0.708041253
     0.250000000  0.625000000  0.287357103
     0.500000000  0.750000000  0.287357103
     0.500000000  0.625000000  0.393678552
     0.250000000  0.750000000  0.393678552
     0.250000000  0.625000000  0.500000000
     0.500000000  0.750000000  0.500000000
     0.500004481  0.624480321  0.604611823
     0.249985548  0.750021040  0.610101709
     0.249821220  0.625152642  0.719515435
     0.500065581  0.750115182  0.707759182
     0.250000000  0.875000000  0.287357103
     0.500000000  0.000000000  0.287357103
     0.500000000  0.875000000  0.393678552
     0.250000000  0.000000000  0.393678552
     0.250000000  0.875000000  0.500000000
     0.500000000  0.000000000  0.500000000
     0.500010977  0.874742743  0.603863468
     0.249997371  0.999990966  0.610135083
     0.250261394  0.875035704  0.719675205
     0.500002221  0.999999857  0.707726617
     0.250000000  0.125000000  0.287357103
     0.500000000  0.250000000  0.287357103
     0.500000000  0.125000000  0.393678552
     0.250000000  0.250000000  0.393678552
     0.250000000  0.125000000  0.500000000
     0.500000000  0.250000000  0.500000000
     0.499987782  0.125257085  0.603863478
     0.249946903  0.249975863  0.610084449
     0.250156462  0.124925540  0.719664208
     0.499940335  0.249884494  0.707759181
     0.250000000  0.375000000  0.287357103
     0.500000000  0.500000000  0.287357103
     0.500000000  0.375000000  0.393678552
     0.250000000  0.500000000  0.393678552
     0.250000000  0.375000000  0.500000000
     0.500000000  0.500000000  0.500000000
     0.499994721  0.375519471  0.604611856
     0.249938531  0.500001064  0.610118076
     0.249684122  0.374784459  0.719469044
     0.500006259  0.499999939  0.709318067
     0.750000000  0.750000000  0.245701670
     0.750000000  0.750000000  0.329012537
     0.097946921  0.625000000  0.287357103
     0.902053079  0.625000000  0.287357103
     0.000000000  0.750000000  0.352023118
     0.000000000  0.750000000  0.435333986
     0.847946921  0.625000000  0.393678552
     0.152053079  0.625000000  0.393678552
     0.750000000  0.750000000  0.458344566
     0.750000000  0.750000000  0.541655434
     0.097946921  0.625000000  0.500000000
     0.902053079  0.625000000  0.500000000
     0.000004695  0.750042784  0.565166282
     0.000007257  0.749977716  0.648681979
     0.850117928  0.625033867  0.606764076
     0.149892492  0.625052536  0.606772825
     0.750630482  0.750180894  0.671234595
     0.749724372  0.749900183  0.754865169
     0.093817460  0.624925357  0.718526416
     0.906252557  0.624954710  0.718519332
     0.750000000  0.000000000  0.245701670
     0.750000000  0.000000000  0.329012537
     0.097946921  0.875000000  0.287357103
     0.902053079  0.875000000  0.287357103
     0.000000000  0.000000000  0.352023118
     0.000000000  0.000000000  0.435333986
     0.847946921  0.875000000  0.393678552
     0.152053079  0.875000000  0.393678552
     0.750000000  0.000000000  0.458344566
     0.750000000  0.000000000  0.541655434
     0.097946921  0.875000000  0.500000000
     0.902053079  0.875000000  0.500000000
     0.000000971  0.999999914  0.565164441
     0.000000319  0.999999931  0.648675634
     0.850107117  0.875073856  0.606798143
     0.149909018  0.875048223  0.606815855
     0.750101070  0.000003797  0.671279036
     0.749999684  0.000004609  0.754925763
     0.093872290  0.874985693  0.718390354
     0.906211986  0.874967100  0.718430829
     0.750000000  0.250000000  0.245701670
     0.750000000  0.250000000  0.329012537
     0.097946921  0.125000000  0.287357103
     0.902053079  0.125000000  0.287357103
     0.000000000  0.250000000  0.352023118
     0.000000000  0.250000000  0.435333986
     0.847946921  0.125000000  0.393678552
     0.152053079  0.125000000  0.393678552
     0.750000000  0.250000000  0.458344566
     0.750000000  0.250000000  0.541655434
     0.097946921  0.125000000  0.500000000
     0.902053079  0.125000000  0.500000000
     0.999997241  0.249957115  0.565166257
     0.999994110  0.250022157  0.648681914
     0.850092549  0.124951336  0.606815028
     0.149894414  0.124926250  0.606798954
     0.750465631  0.249872013  0.671255898
     0.749756917  0.250106469  0.754888469
     0.093794041  0.125032278  0.718430115
     0.906133713  0.125014572  0.718390930
     0.750000000  0.500000000  0.245701670
     0.750000000  0.500000000  0.329012537
     0.097946921  0.375000000  0.287357103
     0.902053079  0.375000000  0.287357103
     0.000000000  0.500000000  0.352023118
     0.000000000  0.500000000  0.435333986
     0.847946921  0.375000000  0.393678552
     0.152053079  0.375000000  0.393678552
     0.750000000  0.500000000  0.458344566
     0.750000000  0.500000000  0.541655434
     0.097946921  0.375000000  0.500000000
     0.902053079  0.375000000  0.500000000
     0.000001037  0.499999980  0.565162504
     0.000001104  0.499999912  0.648664745
     0.850109467  0.374947168  0.606771824
     0.149884023  0.374966194  0.606765034
     0.750876714  0.499964613  0.671235515
     0.748683983  0.500063757  0.754821028
     0.093756271  0.375044549  0.718518287
     0.906191391  0.375074988  0.718527382
     0.250000000  0.750000000  0.245701670
     0.250000000  0.750000000  0.329012537
     0.597946921  0.625000000  0.287357103
     0.402053079  0.625000000  0.287357103
     0.500000000  0.750000000  0.352023118
     0.500000000  0.750000000  0.435333986
     0.347946921  0.625000000  0.393678552
     0.652053079  0.625000000  0.393678552
     0.250000000  0.750000000  0.458344566
     0.250000000  0.750000000  0.541655434
     0.597946921  0.625000000  0.500000000
     0.402053079  0.625000000  0.500000000
     0.500009270  0.749407389  0.565158622
     0.499950631  0.750515761  0.648424373
     0.349942054  0.624977207  0.606978067
     0.650065113  0.624995892  0.606992912
     0.249541387  0.750127328  0.671256304
     0.250248338  0.749893796  0.754888966
     0.594306355  0.625999993  0.717501953
     0.405835057  0.625962647  0.717657853
     0.250000000  0.000000000  0.245701670
     0.250000000  0.000000000  0.329012537
     0.597946921  0.875000000  0.287357103
     0.402053079  0.875000000  0.287357103
     0.500000000  0.000000000  0.352023118
     0.500000000  0.000000000  0.435333986
     0.347946921  0.875000000  0.393678552
     0.652053079  0.875000000  0.393678552
     0.250000000  0.000000000  0.458344566
     0.250000000  0.000000000  0.541655434
     0.597946921  0.875000000  0.500000000
     0.402053079  0.875000000  0.500000000
     0.500000597  0.999999923  0.564986293
     0.500000851  0.999999938  0.648394249
     0.349968917  0.874987729  0.606767278
     0.650032107  0.874975466  0.606774944
     0.249903538  0.999996009  0.671279151
     0.250005168  0.999995239  0.754925954
     0.593931635  0.875226270  0.718187808
     0.406133185  0.875232689  0.718230327
     0.250000000  0.250000000  0.245701670
     0.250000000  0.250000000  0.329012537
     0.597946921  0.125000000  0.287357103
     0.402053079  0.125000000  0.287357103
     0.500000000  0.250000000  0.352023118
     0.500000000  0.250000000  0.435333986
     0.347946921  0.125000000  0.393678552
     0.652053079  0.125000000  0.393678552
     0.250000000  0.250000000  0.458344566
     0.250000000  0.250000000  0.541655434
     0.597946921  0.125000000  0.500000000
     0.402053079  0.125000000  0.500000000
     0.499992033  0.250592443  0.565158635
     0.500049992  0.249484006  0.648424379
     0.349969390  0.125024148  0.606774552
     0.650032590  0.125012334  0.606767647
     0.249376593  0.249819449  0.671234892
     0.250280897  0.250099085  0.754865577
     0.593872617  0.124767112  0.718229823
     0.406074220  0.124773416  0.718188343
     0.250000000  0.500000000  0.245701670
     0.250000000  0.500000000  0.329012537
     0.597946921  0.375000000  0.287357103
     0.402053079  0.375000000  0.287357103
     0.500000000  0.500000000  0.352023118
     0.500000000  0.500000000  0.435333986
     0.347946921  0.375000000  0.393678552
     0.652053079  0.375000000  0.393678552
     0.250000000  0.500000000  0.458344566
     0.250000000  0.500000000  0.541655434
     0.597946921  0.375000000  0.500000000
     0.402053079  0.375000000  0.500000000
     0.500000684  0.499999909  0.565355037
     0.500000692  0.499999890  0.649284550
     0.349936601  0.375004031  0.606992392
     0.650059643  0.375022602  0.606978510
     0.249131410  0.500035274  0.671236232
     0.251322370  0.499935915  0.754822091
     0.594174206  0.374036212  0.717655259
     0.405702919  0.374000793  0.717504542

  ion indices of the primitive-cell ions
   primitive index   ion index
                 1           1
                 2           2
                 3           3
                 4           4
                 5           5
                 6           6
                 7           7
                 8           8
                 9           9
                10          10
                11          11
                12          12
                13          13
                14          14
                15          15
                16          16
                17          17
                18          18
                19          19
                20          20
                21          21
                22          22
                23          23
                24          24
                25          25
                26          26
                27          27
                28          28
                29          29
                30          30
                31          31
                32          32
                33          33
                34          34
                35          35
                36          36
                37          37
                38          38
                39          39
                40          40
                41          41
                42          42
                43          43
                44          44
                45          45
                46          46
                47          47
                48          48
                49          49
                50          50
                51          51
                52          52
                53          53
                54          54
                55          55
                56          56
                57          57
                58          58
                59          59
                60          60
                61          61
                62          62
                63          63
                64          64
                65          65
                66          66
                67          67
                68          68
                69          69
                70          70
                71          71
                72          72
                73          73
                74          74
                75          75
                76          76
                77          77
                78          78
                79          79
                80          80
                81          81
                82          82
                83          83
                84          84
                85          85
                86          86
                87          87
                88          88
                89          89
                90          90
                91          91
                92          92
                93          93
                94          94
                95          95
                96          96
                97          97
                98          98
                99          99
               100         100
               101         101
               102         102
               103         103
               104         104
               105         105
               106         106
               107         107
               108         108
               109         109
               110         110
               111         111
               112         112
               113         113
               114         114
               115         115
               116         116
               117         117
               118         118
               119         119
               120         120
               121         121
               122         122
               123         123
               124         124
               125         125
               126         126
               127         127
               128         128
               129         129
               130         130
               131         131
               132         132
               133         133
               134         134
               135         135
               136         136
               137         137
               138         138
               139         139
               140         140
               141         141
               142         142
               143         143
               144         144
               145         145
               146         146
               147         147
               148         148
               149         149
               150         150
               151         151
               152         152
               153         153
               154         154
               155         155
               156         156
               157         157
               158         158
               159         159
               160         160
               161         161
               162         162
               163         163
               164         164
               165         165
               166         166
               167         167
               168         168
               169         169
               170         170
               171         171
               172         172
               173         173
               174         174
               175         175
               176         176
               177         177
               178         178
               179         179
               180         180
               181         181
               182         182
               183         183
               184         184
               185         185
               186         186
               187         187
               188         188
               189         189
               190         190
               191         191
               192         192
               193         193
               194         194
               195         195
               196         196
               197         197
               198         198
               199         199
               200         200
               201         201
               202         202
               203         203
               204         204
               205         205
               206         206
               207         207
               208         208
               209         209
               210         210
               211         211
               212         212
               213         213
               214         214
               215         215
               216         216
               217         217
               218         218
               219         219
               220         220
               221         221
               222         222
               223         223
               224         224
               225         225
               226         226
               227         227
               228         228
               229         229
               230         230
               231         231
               232         232
               233         233
               234         234
               235         235
               236         236
               237         237
               238         238
               239         239
               240         240

----------------------------------------------------------------------------------------

 
 
 KPOINTS: pymatgen v2020.8.13 with grid density = 

Automatic generation of k-mesh.
 Grid dimensions read from file:
 generate k-points for:    2    2    1

 Generating k-lattice:

  Cartesian coordinates                     Fractional coordinates (reciprocal lattice)
     0.038515538  0.000000000  0.000000000     0.500000000  0.000000000  0.000000000
     0.000000000  0.042265669  0.000000000     0.000000000  0.500000000  0.000000000
     0.000000000  0.000000000  0.032760223     0.000000000  0.000000000  1.000000000

  Length of vectors
     0.038515538  0.042265669  0.032760223

  Shift w.r.t. Gamma in fractional coordinates (k-lattice)
     0.000000000  0.000000000  0.000000000

 
 Subroutine IBZKPT returns following result:
 ===========================================
 
 Found      4 irreducible k-points:
 
 Following reciprocal coordinates:
            Coordinates               Weight
  0.000000  0.000000  0.000000      1.000000
  0.500000  0.000000  0.000000      1.000000
  0.000000  0.500000  0.000000      1.000000
  0.500000  0.500000  0.000000      1.000000
 
 Following cartesian coordinates:
            Coordinates               Weight
  0.000000  0.000000  0.000000      1.000000
  0.038516  0.000000  0.000000      1.000000
  0.000000  0.042266  0.000000      1.000000
  0.038516  0.042266  0.000000      1.000000
 


--------------------------------------------------------------------------------------------------------




 Dimension of arrays:
   k-points           NKPTS =      4   k-points in BZ     NKDIM =      4   number of bands    NBANDS=   1064
   number of dos      NEDOS =    301   number of ions     NIONS =    240
   non local maximal  LDIM  =      6   non local SUM 2l+1 LMDIM =     18
   total plane-waves  NPLWV = ******
   max r-space proj   IRMAX =      1   max aug-charges    IRDMAX=  21664
   dimension x,y,z NGX =   108 NGY =   96 NGZ =  250
   dimension x,y,z NGXF=   216 NGYF=  192 NGZF=  500
   support grid    NGXF=   216 NGYF=  192 NGZF=  500
   ions per type =              80 160
   NGX,Y,Z   is equivalent  to a cutoff of  13.83, 13.49, 13.62 a.u.
   NGXF,Y,Z  is equivalent  to a cutoff of  27.66, 26.98, 27.23 a.u.

 SYSTEM =  TiO2                                    
 POSCAR =  Ti  O                                   

--------------------------------------------------------------------------------------------------------


  energy-cutoff  :      600.00
  volume of cell :     4687.80
      direct lattice vectors                 reciprocal lattice vectors
    12.981773603  0.000000000  0.000000000     0.077031077  0.000000000  0.000000000
     0.000000000 11.829932295  0.000000000     0.000000000  0.084531338  0.000000000
     0.000000000  0.000000000 30.524823105     0.000000000  0.000000000  0.032760223

  length of vectors
    12.981773603 11.829932295 30.524823105     0.077031077  0.084531338  0.032760223


 
 k-points in units of 2pi/SCALE and weight: pymatgen v2020.8.13 with grid density = 
   0.00000000  0.00000000  0.00000000       0.250
   0.03851554  0.00000000  0.00000000       0.250
   0.00000000  0.04226567  0.00000000       0.250
   0.03851554  0.04226567  0.00000000       0.250
 
 k-points in reciprocal lattice and weights: pymatgen v2020.8.13 with grid density = 
   0.00000000  0.00000000  0.00000000       0.250
   0.50000000  0.00000000  0.00000000       0.250
   0.00000000  0.50000000  0.00000000       0.250
   0.50000000  0.50000000  0.00000000       0.250
 
 position of ions in fractional coordinates (direct lattice) 
   0.75000000  0.62500000  0.28735710
   0.00000000  0.75000000  0.28735710
   0.00000000  0.62500000  0.39367855
   0.75000000  0.75000000  0.39367855
   0.75000000  0.62500000  0.50000000
   0.00000000  0.75000000  0.50000000
   0.00001038  0.62501261  0.60415593
   0.75005298  0.75002409  0.61008412
   0.75032653  0.62521556  0.71946814
   0.00008687  0.75016474  0.70806468
   0.75000000  0.87500000  0.28735710
   0.00000000  0.00000000  0.28735710
   0.00000000  0.87500000  0.39367855
   0.75000000  0.00000000  0.39367855
   0.75000000  0.87500000  0.50000000
   0.00000000  0.00000000  0.50000000
   0.00000060  0.87501549  0.60416817
   0.75000203  0.00000886  0.61013492
   0.74984906  0.87507423  0.71966409
   0.00000187  0.99999992  0.70806354
   0.75000000  0.12500000  0.28735710
   0.00000000  0.25000000  0.28735710
   0.00000000  0.12500000  0.39367855
   0.75000000  0.25000000  0.39367855
   0.75000000  0.12500000  0.50000000
   0.00000000  0.25000000  0.50000000
   0.99999849  0.12498437  0.60416813
   0.75001436  0.24997865  0.61010123
   0.74974412  0.12496407  0.71967497
   0.99992032  0.24983509  0.70806461
   0.75000000  0.37500000  0.28735710
   0.00000000  0.50000000  0.28735710
   0.00000000  0.37500000  0.39367855
   0.75000000  0.50000000  0.39367855
   0.75000000  0.37500000  0.50000000
   0.00000000  0.50000000  0.50000000
   0.99998899  0.37498732  0.60415590
   0.75006169  0.49999879  0.61011749
   0.75018951  0.37484672  0.71951445
   0.00000555  0.49999989  0.70804125
   0.25000000  0.62500000  0.28735710
   0.50000000  0.75000000  0.28735710
   0.50000000  0.62500000  0.39367855
   0.25000000  0.75000000  0.39367855
   0.25000000  0.62500000  0.50000000
   0.50000000  0.75000000  0.50000000
   0.50000448  0.62448032  0.60461182
   0.24998555  0.75002104  0.61010171
   0.24982122  0.62515264  0.71951543
   0.50006558  0.75011518  0.70775918
   0.25000000  0.87500000  0.28735710
   0.50000000  0.00000000  0.28735710
   0.50000000  0.87500000  0.39367855
   0.25000000  0.00000000  0.39367855
   0.25000000  0.87500000  0.50000000
   0.50000000  0.00000000  0.50000000
   0.50001098  0.87474274  0.60386347
   0.24999737  0.99999097  0.61013508
   0.25026139  0.87503570  0.71967520
   0.50000222  0.99999986  0.70772662
   0.25000000  0.12500000  0.28735710
   0.50000000  0.25000000  0.28735710
   0.50000000  0.12500000  0.39367855
   0.25000000  0.25000000  0.39367855
   0.25000000  0.12500000  0.50000000
   0.50000000  0.25000000  0.50000000
   0.49998778  0.12525708  0.60386348
   0.24994690  0.24997586  0.61008445
   0.25015646  0.12492554  0.71966421
   0.49994034  0.24988449  0.70775918
   0.25000000  0.37500000  0.28735710
   0.50000000  0.50000000  0.28735710
   0.50000000  0.37500000  0.39367855
   0.25000000  0.50000000  0.39367855
   0.25000000  0.37500000  0.50000000
   0.50000000  0.50000000  0.50000000
   0.49999472  0.37551947  0.60461186
   0.24993853  0.50000106  0.61011808
   0.24968412  0.37478446  0.71946904
   0.50000626  0.49999994  0.70931807
   0.75000000  0.75000000  0.24570167
   0.75000000  0.75000000  0.32901254
   0.09794692  0.62500000  0.28735710
   0.90205308  0.62500000  0.28735710
   0.00000000  0.75000000  0.35202312
   0.00000000  0.75000000  0.43533399
   0.84794692  0.62500000  0.39367855
   0.15205308  0.62500000  0.39367855
   0.75000000  0.75000000  0.45834457
   0.75000000  0.75000000  0.54165543
   0.09794692  0.62500000  0.50000000
   0.90205308  0.62500000  0.50000000
   0.00000469  0.75004278  0.56516628
   0.00000726  0.74997772  0.64868198
   0.85011793  0.62503387  0.60676408
   0.14989249  0.62505254  0.60677282
   0.75063048  0.75018089  0.67123459
   0.74972437  0.74990018  0.75486517
   0.09381746  0.62492536  0.71852642
   0.90625256  0.62495471  0.71851933
   0.75000000  0.00000000  0.24570167
   0.75000000  0.00000000  0.32901254
   0.09794692  0.87500000  0.28735710
   0.90205308  0.87500000  0.28735710
   0.00000000  0.00000000  0.35202312
   0.00000000  0.00000000  0.43533399
   0.84794692  0.87500000  0.39367855
   0.15205308  0.87500000  0.39367855
   0.75000000  0.00000000  0.45834457
   0.75000000  0.00000000  0.54165543
   0.09794692  0.87500000  0.50000000
   0.90205308  0.87500000  0.50000000
   0.00000097  0.99999991  0.56516444
   0.00000032  0.99999993  0.64867563
   0.85010712  0.87507386  0.60679814
   0.14990902  0.87504822  0.60681586
   0.75010107  0.00000380  0.67127904
   0.74999968  0.00000461  0.75492576
   0.09387229  0.87498569  0.71839035
   0.90621199  0.87496710  0.71843083
   0.75000000  0.25000000  0.24570167
   0.75000000  0.25000000  0.32901254
   0.09794692  0.12500000  0.28735710
   0.90205308  0.12500000  0.28735710
   0.00000000  0.25000000  0.35202312
   0.00000000  0.25000000  0.43533399
   0.84794692  0.12500000  0.39367855
   0.15205308  0.12500000  0.39367855
   0.75000000  0.25000000  0.45834457
   0.75000000  0.25000000  0.54165543
   0.09794692  0.12500000  0.50000000
   0.90205308  0.12500000  0.50000000
   0.99999724  0.24995712  0.56516626
   0.99999411  0.25002216  0.64868191
   0.85009255  0.12495134  0.60681503
   0.14989441  0.12492625  0.60679895
   0.75046563  0.24987201  0.67125590
   0.74975692  0.25010647  0.75488847
   0.09379404  0.12503228  0.71843011
   0.90613371  0.12501457  0.71839093
   0.75000000  0.50000000  0.24570167
   0.75000000  0.50000000  0.32901254
   0.09794692  0.37500000  0.28735710
   0.90205308  0.37500000  0.28735710
   0.00000000  0.50000000  0.35202312
   0.00000000  0.50000000  0.43533399
   0.84794692  0.37500000  0.39367855
   0.15205308  0.37500000  0.39367855
   0.75000000  0.50000000  0.45834457
   0.75000000  0.50000000  0.54165543
   0.09794692  0.37500000  0.50000000
   0.90205308  0.37500000  0.50000000
   0.00000104  0.49999998  0.56516250
   0.00000110  0.49999991  0.64866475
   0.85010947  0.37494717  0.60677182
   0.14988402  0.37496619  0.60676503
   0.75087671  0.49996461  0.67123552
   0.74868398  0.50006376  0.75482103
   0.09375627  0.37504455  0.71851829
   0.90619139  0.37507499  0.71852738
   0.25000000  0.75000000  0.24570167
   0.25000000  0.75000000  0.32901254
   0.59794692  0.62500000  0.28735710
   0.40205308  0.62500000  0.28735710
   0.50000000  0.75000000  0.35202312
   0.50000000  0.75000000  0.43533399
   0.34794692  0.62500000  0.39367855
   0.65205308  0.62500000  0.39367855
   0.25000000  0.75000000  0.45834457
   0.25000000  0.75000000  0.54165543
   0.59794692  0.62500000  0.50000000
   0.40205308  0.62500000  0.50000000
   0.50000927  0.74940739  0.56515862
   0.49995063  0.75051576  0.64842437
   0.34994205  0.62497721  0.60697807
   0.65006511  0.62499589  0.60699291
   0.24954139  0.75012733  0.67125630
   0.25024834  0.74989380  0.75488897
   0.59430635  0.62599999  0.71750195
   0.40583506  0.62596265  0.71765785
   0.25000000  0.00000000  0.24570167
   0.25000000  0.00000000  0.32901254
   0.59794692  0.87500000  0.28735710
   0.40205308  0.87500000  0.28735710
   0.50000000  0.00000000  0.35202312
   0.50000000  0.00000000  0.43533399
   0.34794692  0.87500000  0.39367855
   0.65205308  0.87500000  0.39367855
   0.25000000  0.00000000  0.45834457
   0.25000000  0.00000000  0.54165543
   0.59794692  0.87500000  0.50000000
   0.40205308  0.87500000  0.50000000
   0.50000060  0.99999992  0.56498629
   0.50000085  0.99999994  0.64839425
   0.34996892  0.87498773  0.60676728
   0.65003211  0.87497547  0.60677494
   0.24990354  0.99999601  0.67127915
   0.25000517  0.99999524  0.75492595
   0.59393164  0.87522627  0.71818781
   0.40613318  0.87523269  0.71823033
   0.25000000  0.25000000  0.24570167
   0.25000000  0.25000000  0.32901254
   0.59794692  0.12500000  0.28735710
   0.40205308  0.12500000  0.28735710
   0.50000000  0.25000000  0.35202312
   0.50000000  0.25000000  0.43533399
   0.34794692  0.12500000  0.39367855
   0.65205308  0.12500000  0.39367855
   0.25000000  0.25000000  0.45834457
   0.25000000  0.25000000  0.54165543
   0.59794692  0.12500000  0.50000000
   0.40205308  0.12500000  0.50000000
   0.49999203  0.25059244  0.56515863
   0.50004999  0.24948401  0.64842438
   0.34996939  0.12502415  0.60677455
   0.65003259  0.12501233  0.60676765
   0.24937659  0.24981945  0.67123489
   0.25028090  0.25009908  0.75486558
   0.59387262  0.12476711  0.71822982
   0.40607422  0.12477342  0.71818834
   0.25000000  0.50000000  0.24570167
   0.25000000  0.50000000  0.32901254
   0.59794692  0.37500000  0.28735710
   0.40205308  0.37500000  0.28735710
   0.50000000  0.50000000  0.35202312
   0.50000000  0.50000000  0.43533399
   0.34794692  0.37500000  0.39367855
   0.65205308  0.37500000  0.39367855
   0.25000000  0.50000000  0.45834457
   0.25000000  0.50000000  0.54165543
   0.59794692  0.37500000  0.50000000
   0.40205308  0.37500000  0.50000000
   0.50000068  0.49999991  0.56535504
   0.50000069  0.49999989  0.64928455
   0.34993660  0.37500403  0.60699239
   0.65005964  0.37502260  0.60697851
   0.24913141  0.50003527  0.67123623
   0.25132237  0.49993592  0.75482209
   0.59417421  0.37403621  0.71765526
   0.40570292  0.37400079  0.71750454
 
 position of ions in cartesian coordinates  (Angst):
   9.73633020  7.39370768  8.77152475
   0.00000000  8.87244922  8.77152475
   0.00000000  7.39370768 12.01696815
   9.73633020  8.87244922 12.01696815
   9.73633020  7.39370768 15.26241155
   0.00000000  8.87244922 15.26241155
   0.00013476  7.39385686 18.44175293
   9.73701803  8.87273423 18.62270989
   9.74056916  7.39625780 21.96163768
   0.00112767  8.87439813 21.61354915
   9.73633020 10.35119076  8.77152475
   0.00000000  0.00000000  8.77152475
   0.00000000 10.35119076 12.01696815
   9.73633020  0.00000000 12.01696815
   9.73633020 10.35119076 15.26241155
   0.00000000  0.00000000 15.26241155
   0.00000785 10.35137396 18.44212651
   9.73635654  0.00010486 18.62426037
   9.73437073 10.35206894 21.96761894
   0.00002424 11.82993130 21.61351445
   9.73633020  1.47874154  8.77152475
   0.00000000  2.95748307  8.77152475
   0.00000000  1.47874154 12.01696815
   9.73633020  2.95748307 12.01696815
   9.73633020  1.47874154 15.26241155
   0.00000000  2.95748307 15.26241155
  12.98175403  1.47855668 18.44212518
   9.73651662  2.95723050 18.62323221
   9.73300844  1.47831649 21.96795128
  12.98073921  2.95553219 21.61354704
   9.73633020  4.43622461  8.77152475
   0.00000000  5.91496615  8.77152475
   0.00000000  4.43622461 12.01696815
   9.73633020  5.91496615 12.01696815
   9.73633020  4.43622461 15.26241155
   0.00000000  5.91496615 15.26241155
  12.98163071  4.43607458 18.44175192
   9.73713111  5.91495179 18.62372861
   9.73879035  4.43441134 21.96305139
   0.00007204  5.91496490 21.61283400
   3.24544340  7.39370768  8.77152475
   6.49088680  8.87244922  8.77152475
   6.49088680  7.39370768 12.01696815
   3.24544340  8.87244922 12.01696815
   3.24544340  7.39370768 15.26241155
   6.49088680  8.87244922 15.26241155
   6.49094497  7.38755992 18.45566894
   3.24525579  8.87269812 18.62324674
   3.24312252  7.39551343 21.96308136
   6.49173816  8.87381181 21.60422382
   3.24544340 10.35119076  8.77152475
   6.49088680  0.00000000  8.77152475
   6.49088680 10.35119076 12.01696815
   3.24544340  0.00000000 12.01696815
   3.24544340 10.35119076 15.26241155
   6.49088680  0.00000000 15.26241155
   6.49102931 10.34814742 18.43282554
   3.24540928 11.82982542 18.62426549
   3.24883675 10.35161314 21.96795832
   6.49091563 11.82993061 21.60322978
   3.24544340  1.47874154  8.77152475
   6.49088680  2.95748307  8.77152475
   6.49088680  1.47874154 12.01696815
   3.24544340  2.95748307 12.01696815
   3.24544340  1.47874154 15.26241155
   6.49088680  2.95748307 15.26241155
   6.49072819  1.48178283 18.43282584
   3.24475411  2.95719753 18.62271988
   3.24747455  1.47786068 21.96762265
   6.49011224  2.95611665 21.60422380
   3.24544340  4.43622461  8.77152475
   6.49088680  5.91496615  8.77152475
   6.49088680  4.43622461 12.01696815
   3.24544340  5.91496615 12.01696815
   3.24544340  4.43622461 15.26241155
   6.49088680  5.91496615 15.26241155
   6.49081827  4.44236992 18.45566994
   3.24464542  5.91497873 18.62374635
   3.24134274  4.43367477 21.96166530
   6.49096805  5.91496543 21.65180851
   9.73633020  8.87244922  7.50000000
   9.73633020  8.87244922 10.04304950
   1.27152475  7.39370768  8.77152475
  11.71024885  7.39370768  8.77152475
   0.00000000  8.87244922 10.74544340
   0.00000000  8.87244922 13.28849290
  11.00785495  7.39370768 12.01696815
   1.97391865  7.39370768 12.01696815
   9.73633020  8.87244922 13.99088680
   9.73633020  8.87244922 16.53393630
   1.27152475  7.39370768 15.26241155
  11.71024885  7.39370768 15.26241155
   0.00006095  8.87295535 17.25160078
   0.00009421  8.87218560 19.80090265
  11.03603848  7.39410833 18.52136609
   1.94587040  7.39432918 18.52163314
   9.74451497  8.87458919 20.48931727
   9.73275206  8.87126839 23.04212576
   1.21791702  7.39282466 21.93289174
  11.76476553  7.39317191 21.93267551
   9.73633020  0.00000000  7.50000000
   9.73633020  0.00000000 10.04304950
   1.27152475 10.35119076  8.77152475
  11.71024885 10.35119076  8.77152475
   0.00000000  0.00000000 10.74544340
   0.00000000  0.00000000 13.28849290
  11.00785495 10.35119076 12.01696815
   1.97391865 10.35119076 12.01696815
   9.73633020  0.00000000 13.99088680
   9.73633020  0.00000000 16.53393630
   1.27152475 10.35119076 15.26241155
  11.71024885 10.35119076 15.26241155
   0.00001260 11.82993128 17.25154459
   0.00000415 11.82993147 19.80070897
  11.03589813 10.35206447 18.52240599
   1.94608493 10.35176123 18.52294664
   9.73764228  0.00004492 20.49067381
   9.73632611  0.00005453 23.04397537
   1.21862882 10.35102151 21.92873848
  11.76423884 10.35080156 21.92997397
   9.73633020  2.95748307  7.50000000
   9.73633020  2.95748307 10.04304950
   1.27152475  1.47874154  8.77152475
  11.71024885  1.47874154  8.77152475
   0.00000000  2.95748307 10.74544340
   0.00000000  2.95748307 13.28849290
  11.00785495  1.47874154 12.01696815
   1.97391865  1.47874154 12.01696815
   9.73633020  2.95748307 13.99088680
   9.73633020  2.95748307 16.53393630
   1.27152475  1.47874154 15.26241155
  11.71024885  1.47874154 15.26241155
  12.98173779  2.95697575 17.25160002
  12.98169714  2.95774519 19.80090067
  11.03570902  1.47816584 18.52292137
   1.94589535  1.47786908 18.52243073
   9.74237492  2.95596899 20.48996753
   9.73317456  2.95874259 23.04283699
   1.21761301  1.47912338 21.92995216
  11.76322271  1.47891392 21.92875605
   9.73633020  5.91496615  7.50000000
   9.73633020  5.91496615 10.04304950
   1.27152475  4.43622461  8.77152475
  11.71024885  4.43622461  8.77152475
   0.00000000  5.91496615 10.74544340
   0.00000000  5.91496615 13.28849290
  11.00785495  4.43622461 12.01696815
   1.97391865  4.43622461 12.01696815
   9.73633020  5.91496615 13.99088680
   9.73633020  5.91496615 16.53393630
   1.27152475  4.43622461 15.26241155
  11.71024885  4.43622461 15.26241155
   0.00001346  5.91496591 17.25148547
   0.00001434  5.91496511 19.80037660
  11.03592864  4.43559961 18.52160260
   1.94576045  4.43582469 18.52139532
   9.74771151  5.91454752 20.48934536
   9.71924596  5.91572039 23.04077836
   1.21712269  4.43675162 21.93264361
  11.76397148  4.43711171 21.93292123
   3.24544340  8.87244922  7.50000000
   3.24544340  8.87244922 10.04304950
   7.76241155  7.39370768  8.77152475
   5.21936205  7.39370768  8.77152475
   6.49088680  8.87244922 10.74544340
   6.49088680  8.87244922 13.28849290
   4.51696815  7.39370768 12.01696815
   8.46480545  7.39370768 12.01696815
   3.24544340  8.87244922 13.99088680
   3.24544340  8.87244922 16.53393630
   7.76241155  7.39370768 15.26241155
   5.21936205  7.39370768 15.26241155
   6.49100714  8.86543868 17.25136696
   6.49024591  8.87855064 19.79303928
   4.54286852  7.39343804 18.52789812
   8.43899813  7.39365908 18.52835127
   3.23948979  8.87395550 20.48997993
   3.24866726  8.87119284 23.04285215
   7.71515055  7.40553753 21.90162020
   5.26845883  7.40509573 21.90637901
   3.24544340  0.00000000  7.50000000
   3.24544340  0.00000000 10.04304950
   7.76241155 10.35119076  8.77152475
   5.21936205 10.35119076  8.77152475
   6.49088680  0.00000000 10.74544340
   6.49088680  0.00000000 13.28849290
   4.51696815 10.35119076 12.01696815
   8.46480545 10.35119076 12.01696815
   3.24544340  0.00000000 13.99088680
   3.24544340  0.00000000 16.53393630
   7.76241155 10.35119076 15.26241155
   5.21936205 10.35119076 15.26241155
   6.49089455 11.82993138 17.24610665
   6.49089785 11.82993157 19.79211977
   4.54321725 10.35104559 18.52146384
   8.43856965 10.35090053 18.52169782
   3.24419115 11.82988508 20.49067735
   3.24551050 11.82987597 23.04398119
   7.71028603 10.35386751 21.92255581
   5.27232906 10.35394346 21.92385369
   3.24544340  2.95748307  7.50000000
   3.24544340  2.95748307 10.04304950
   7.76241155  1.47874154  8.77152475
   5.21936205  1.47874154  8.77152475
   6.49088680  2.95748307 10.74544340
   6.49088680  2.95748307 13.28849290
   4.51696815  1.47874154 12.01696815
   8.46480545  1.47874154 12.01696815
   3.24544340  2.95748307 13.99088680
   3.24544340  2.95748307 16.53393630
   7.76241155  1.47874154 15.26241155
   5.21936205  1.47874154 15.26241155
   6.49078338  2.96449163 17.25136735
   6.49153578  2.95137890 19.79303946
   4.54322339  1.47902720 18.52168585
   8.43857592  1.47888745 18.52147509
   3.23735048  2.95534717 20.48932636
   3.24908994  2.95865524 23.04213822
   7.70951987  1.47598648 21.92383830
   5.27156359  1.47606107 21.92257213
   3.24544340  5.91496615  7.50000000
   3.24544340  5.91496615 10.04304950
   7.76241155  4.43622461  8.77152475
   5.21936205  4.43622461  8.77152475
   6.49088680  5.91496615 10.74544340
   6.49088680  5.91496615 13.28849290
   4.51696815  4.43622461 12.01696815
   8.46480545  4.43622461 12.01696815
   3.24544340  5.91496615 13.99088680
   3.24544340  5.91496615 16.53393630
   7.76241155  4.43622461 15.26241155
   5.21936205  4.43622461 15.26241155
   6.49089569  5.91496507 17.25736250
   6.49089579  5.91496485 19.81929602
   4.54279773  4.43627230 18.52833540
   8.43892712  4.43649200 18.52791165
   3.23416757  5.91538344 20.48936726
   3.26261011  5.91420803 23.04081081
   7.71343503  4.42482307 21.90629983
   5.26674344  4.42440406 21.90169922
 


--------------------------------------------------------------------------------------------------------

--------------------------------------- Iteration      FINAL  ---------------------------------------


--------------------OUTCAR has been truncated-------------------------


--------------------OUTCAR has been truncated-------------------------


--------------------OUTCAR has been truncated-------------------------


--------------------OUTCAR has been truncated-------------------------


--------------------OUTCAR has been truncated-------------------------


--------------------OUTCAR has been truncated-------------------------


--------------------OUTCAR has been truncated-------------------------


--------------------OUTCAR has been truncated-------------------------


--------------------OUTCAR has been truncated-------------------------


--------------------OUTCAR has been truncated-------------------------


  FORCE on cell =-STRESS in cart. coord.  units (eV):
  Direction    XX          YY          ZZ          XY          YZ          ZX
  --------------------------------------------------------------------------------------
  Alpha Z  4666.60570  4666.60570  4666.60570
  Ewald  986002.94869************************    -0.21569     0.00023     0.05989
  Hartree************************************    -0.08943     0.00028     0.02551
  E(xc)   -8610.16742 -8604.73348 -8606.85084    -0.00019     0.00000     0.00004
  Local  ************************************     0.30307    -0.00055    -0.08374
  n-local -5462.02455 -5386.72378 -5507.32856    -0.00436     0.00000     0.00061
  augment  5249.67311  5225.32117  5254.01835    -0.00108     0.00001     0.00001
  Kinetic 28611.04868 28134.46921 28654.65626     0.00189     0.00010    -0.00430
  Fock        0.00000     0.00000     0.00000     0.00000     0.00000     0.00000
  -------------------------------------------------------------------------------------
  Total      54.43103     0.59945     7.92077    -0.00579     0.00008    -0.00198
  in kB      18.60320     0.20488     2.70713    -0.00198     0.00003    -0.00068
  external pressure =        7.17 kB  Pullay stress =        0.00 kB


 VOLUME and BASIS-vectors are now :
 -----------------------------------------------------------------------------
  energy-cutoff  :      600.00
  volume of cell :     4687.80
      direct lattice vectors                 reciprocal lattice vectors
    12.981773603  0.000000000  0.000000000     0.077031077  0.000000000  0.000000000
     0.000000000 11.829932295  0.000000000     0.000000000  0.084531338  0.000000000
     0.000000000  0.000000000 30.524823105     0.000000000  0.000000000  0.032760223

  length of vectors
    12.981773603 11.829932295 30.524823105     0.077031077  0.084531338  0.032760223


 FORCES acting on ions:
    Electron-Ion                     Ewald-Force                    Non-Local-Force
 -----------------------------------------------------------------------------------------------
   0.173E-01 0.125E-01 0.381E+04   -.174E-01 -.124E-01 -.381E+04   0.109E-04 -.967E-05 0.374E+00
   -.172E-03 0.123E-01 0.399E+04   0.169E-03 -.123E-01 -.398E+04   -.979E-06 -.914E-06 -.370E+01
   -.116E-02 0.324E-01 0.193E+04   0.120E-02 -.324E-01 -.193E+04   -.122E-04 0.299E-04 -.416E-01
   0.644E-01 0.938E-01 0.193E+04   -.649E-01 -.932E-01 -.193E+04   0.106E-03 -.329E-04 0.198E+00
   0.636E+00 0.317E+00 -.189E+02   -.639E+00 -.320E+00 0.197E+02   0.191E-03 0.902E-04 -.119E+00
   -.141E-01 0.118E+00 -.675E+01   0.145E-01 -.116E+00 0.577E+01   -.141E-03 -.817E-03 0.299E+00
   -.323E-01 0.351E-01 -.191E+04   0.323E-01 -.337E-01 0.191E+04   -.578E-04 -.950E-03 0.377E-01
   0.568E+00 0.214E+00 -.197E+04   -.549E+00 -.205E+00 0.197E+04   -.631E-02 -.385E-02 -.437E-01
   -.123E+01 0.231E+01 -.380E+04   0.130E+01 -.237E+01 0.380E+04   -.969E-02 0.113E-01 -.927E-01
   -.751E-02 0.129E+01 -.382E+04   0.490E-02 -.130E+01 0.382E+04   0.178E-02 0.354E-02 0.916E+00
   0.102E-01 0.123E-01 0.381E+04   -.105E-01 -.122E-01 -.381E+04   0.688E-04 -.137E-04 0.374E+00
   -.314E-04 0.856E-05 0.399E+04   0.340E-04 -.333E-05 -.398E+04   0.271E-06 0.350E-05 -.370E+01
   -.121E-02 0.320E-01 0.193E+04   0.125E-02 -.320E-01 -.193E+04   -.107E-04 0.101E-04 -.417E-01
   0.137E-01 -.150E-02 0.193E+04   -.146E-01 0.154E-02 -.193E+04   0.239E-03 0.471E-05 0.198E+00
   0.121E-01 0.251E+00 -.185E+02   -.128E-01 -.243E+00 0.192E+02   0.166E-03 -.378E-03 -.120E+00
   -.419E-04 0.798E-04 -.674E+01   0.811E-04 -.828E-04 0.576E+01   -.182E-04 0.523E-06 0.297E+00
   -.736E-01 0.153E+00 -.191E+04   0.740E-01 -.151E+00 0.191E+04   -.294E-03 -.218E-02 0.365E-01
   0.269E+00 0.195E-01 -.197E+04   -.263E+00 -.196E-01 0.197E+04   -.235E-02 -.551E-04 -.398E-01
   -.342E+00 0.197E+00 -.380E+04   0.354E+00 -.205E+00 0.380E+04   0.114E-01 0.130E-02 -.983E-01
   -.344E-02 0.458E-04 -.382E+04   0.349E-02 -.451E-04 0.382E+04   -.263E-04 -.623E-08 0.931E+00
   0.102E-01 -.125E-01 0.381E+04   -.104E-01 0.124E-01 -.381E+04   0.763E-04 0.346E-05 0.374E+00
   0.966E-04 -.123E-01 0.399E+04   -.979E-04 0.123E-01 -.398E+04   0.301E-05 0.264E-05 -.370E+01
   0.884E-03 -.320E-01 0.193E+04   -.911E-03 0.319E-01 -.193E+04   0.755E-05 -.145E-04 -.417E-01
   0.642E-01 -.937E-01 0.193E+04   -.646E-01 0.930E-01 -.193E+04   0.988E-04 0.352E-04 0.198E+00
   0.769E-03 -.273E+00 -.185E+02   -.159E-02 0.268E+00 0.193E+02   0.317E-03 0.235E-03 -.120E+00
   0.136E-01 -.118E+00 -.675E+01   -.140E-01 0.116E+00 0.577E+01   0.103E-03 0.822E-03 0.299E+00
   0.623E-01 -.153E+00 -.191E+04   -.627E-01 0.151E+00 0.191E+04   0.282E-03 0.218E-02 0.365E-01
   0.429E+00 -.222E+00 -.197E+04   -.410E+00 0.214E+00 0.197E+04   -.610E-02 0.274E-02 -.438E-01
   -.213E+00 -.200E+00 -.380E+04   0.227E+00 0.206E+00 0.380E+04   0.113E-01 -.650E-03 -.989E-01
   0.211E-02 -.129E+01 -.382E+04   0.507E-03 0.130E+01 0.382E+04   -.178E-02 -.354E-02 0.916E+00
   0.174E-01 -.124E-01 0.381E+04   -.174E-01 0.123E-01 -.381E+04   0.973E-05 0.146E-04 0.374E+00
   -.459E-04 -.829E-05 0.399E+04   0.371E-04 0.333E-05 -.398E+04   -.154E-05 -.228E-05 -.370E+01
   0.797E-03 -.325E-01 0.193E+04   -.818E-03 0.324E-01 -.193E+04   0.683E-05 -.291E-04 -.416E-01
   0.115E+00 0.138E-02 0.193E+04   -.115E+00 -.141E-02 -.193E+04   -.107E-03 -.136E-04 0.198E+00
   0.626E+00 -.295E+00 -.189E+02   -.629E+00 0.295E+00 0.197E+02   0.326E-03 0.607E-04 -.119E+00
   -.303E-03 -.127E-03 -.673E+01   0.353E-03 0.131E-03 0.575E+01   -.221E-04 -.167E-05 0.298E+00
   0.199E-01 -.353E-01 -.191E+04   -.199E-01 0.339E-01 0.191E+04   0.302E-04 0.952E-03 0.377E-01
[...]
      9.73301      1.47832     21.96795         0.023002      0.004573      0.023881
     12.98074      2.95553     21.61355         0.000574      0.008502      0.058704
      9.73633      4.43622      8.77152        -0.000047     -0.000099     -3.560642
      0.00000      5.91497      8.77152        -0.000010     -0.000008      2.663142
      0.00000      4.43622     12.01697        -0.000014     -0.000057      0.535189
      9.73633      5.91497     12.01697         0.000040     -0.000043     -0.726997
      9.73633      4.43622     15.26241        -0.002704      0.000314      0.631551
      0.00000      5.91497     15.26241         0.000029      0.000002     -0.688902
     12.98163      4.43607     18.44175        -0.000030     -0.000421     -0.019001
      9.73713      5.91495     18.62373         0.019492      0.000095      0.023274
      9.73879      4.43441     21.96305         0.066992      0.051438      0.069951
      0.00007      5.91496     21.61283        -0.000035      0.000010      0.066669
      3.24544      7.39371      8.77152         0.000039      0.000109     -3.560633
      6.49089      8.87245      8.77152        -0.000006      0.000255      2.663400
      6.49089      7.39371     12.01697        -0.000024      0.005006      0.534515
      3.24544      8.87245     12.01697         0.000324      0.000586     -0.726816
      3.24544      7.39371     15.26241         0.002673     -0.000327      0.631627
      6.49089      8.87245     15.26241        -0.000287     -0.009259     -0.669084
      6.49094      7.38756     18.45567         0.000132      0.032365     -0.070808
      3.24526      8.87270     18.62325        -0.012901      0.005284      0.018245
      3.24312      7.39551     21.96308        -0.067131     -0.051373      0.069870
      6.49174      8.87381     21.60422         0.000666      0.117077      0.029149
      3.24544     10.35119      8.77152         0.000182      0.000085     -3.560542
      6.49089      0.00000      8.77152         0.000005      0.000003      2.663809
      6.49089     10.35119     12.01697        -0.000030      0.002488      0.538272
      3.24544      0.00000     12.01697         0.000726     -0.000038     -0.726868
      3.24544     10.35119     15.26241         0.000489      0.005031      0.634237
      6.49089      0.00000     15.26241        -0.000001     -0.000001     -0.726254
      6.49103     10.34815     18.43283         0.000105      0.018754     -0.028249
      3.24541     11.82983     18.62427        -0.003656      0.000004      0.022596
      3.24884     10.35161     21.96796        -0.023045     -0.004556      0.023880
      6.49092     11.82993     21.60323         0.000036     -0.000002      0.056942
      3.24544      1.47874      8.77152         0.000171     -0.000133     -3.560533
      6.49089      2.95748      8.77152        -0.000010     -0.000266      2.663402
      6.49089      1.47874     12.01697         0.000012     -0.002476      0.538265
      3.24544      2.95748     12.01697         0.000346     -0.000588     -0.727107
      3.24544      1.47874     15.26241         0.000508     -0.007205      0.632807
      6.49089      2.95748     15.26241         0.000284      0.009268     -0.669076
      6.49073      1.48178     18.43283        -0.000105     -0.018750     -0.028251
      3.24475      2.95720     18.62272        -0.012712     -0.005185      0.018718
      3.24747      1.47786     21.96762        -0.021768      0.005346      0.024291
      6.49011      2.95612     21.60422        -0.000622     -0.117022      0.029166
      3.24544      4.43622      8.77152         0.000069     -0.000065     -3.560655
      6.49089      5.91497      8.77152         0.000004      0.000002      2.663123
      6.49089      4.43622     12.01697         0.000008     -0.005012      0.534507
      3.24544      5.91497     12.01697        -0.000041      0.000040     -0.726976
      3.24544      4.43622     15.26241         0.002683      0.002493      0.630075
      6.49089      5.91497     15.26241        -0.000010     -0.000002     -0.662639
      6.49082      4.44237     18.45567        -0.000123     -0.032362     -0.070802
      3.24465      5.91498     18.62375        -0.019477     -0.000105      0.023241
      3.24134      4.43367     21.96167        -0.061764      0.051331      0.073935
      6.49097      5.91497     21.65181        -0.000030     -0.000025     -0.577564
      9.73633      8.87245      7.50000         0.000031     -0.000061      1.841556
      9.73633      8.87245     10.04305         0.000042     -0.000088      1.750911
      1.27152      7.39371      8.77152        -1.784367     -0.000014     -0.750865
     11.71025      7.39371      8.77152         1.784373     -0.000014     -0.750869
      0.00000      8.87245     10.74544         0.000002     -0.000033     -1.422243
      0.00000      8.87245     13.28849        -0.000004     -0.000016     -0.091881
     11.00785      7.39371     12.01697         0.475003     -0.000079      0.050650
      1.97392      7.39371     12.01697        -0.475029     -0.000122      0.050632
      9.73633      8.87245     13.99089         0.000159     -0.001085     -0.132336
      9.73633      8.87245     16.53394        -0.000102     -0.003144      0.103120
      1.27152      7.39371     15.26241        -0.397567      0.000175      0.083234
     11.71025      7.39371     15.26241         0.397189      0.000360      0.083374
      0.00006      8.87296     17.25160         0.000029     -0.001564     -0.032469
      0.00009      8.87219     19.80090        -0.000105     -0.000303      0.047052
     11.03604      7.39411     18.52137         0.026031      0.001015     -0.012974
      1.94587      7.39433     18.52163        -0.026026      0.001016     -0.013082
      9.74451      8.87459     20.48932        -0.011696     -0.000124     -0.025327
      9.73275      8.87127     23.04213        -0.000615      0.010707      0.172292
      1.21792      7.39282     21.93289         0.085115      0.004574      0.044638
     11.76477      7.39317     21.93268        -0.086028      0.004382      0.045112
      9.73633      0.00000      7.50000         0.000038     -0.000007      1.841539
      9.73633      0.00000     10.04305         0.000090     -0.000004      1.750718
      1.27152     10.35119      8.77152        -1.784397     -0.000011     -0.750876
     11.71025     10.35119      8.77152         1.784383     -0.000012     -0.750876
      0.00000      0.00000     10.74544        -0.000002      0.000002     -1.422265
      0.00000      0.00000     13.28849        -0.000004     -0.000001     -0.092067
     11.00785     10.35119     12.01697         0.475049     -0.000152      0.050671
      1.97392     10.35119     12.01697        -0.475080     -0.000111      0.050651
      9.73633      0.00000     13.99089        -0.000054     -0.000399     -0.132909
      9.73633      0.00000     16.53394         0.000864     -0.000246      0.094472
      1.27152     10.35119     15.26241        -0.397554     -0.000314      0.082579
     11.71025     10.35119     15.26241         0.397191     -0.000503      0.082682
      0.00001     11.82993     17.25154         0.000018     -0.000001     -0.031833
      0.00000     11.82993     19.80071         0.000014      0.000001      0.049061
     11.03590     10.35206     18.52241         0.025782     -0.002219     -0.010264
      1.94608     10.35176     18.52295        -0.025931     -0.002163     -0.010504
      9.73764      0.00004     20.49067        -0.003054      0.000076     -0.022943
      9.73633      0.00005     23.04398         0.001811      0.000102      0.183872
      1.21863     10.35102     21.92874         0.085068      0.002403      0.049899
     11.76424     10.35080     21.92997        -0.085942      0.002356      0.049282
      9.73633      2.95748      7.50000         0.000031      0.000067      1.841545
      9.73633      2.95748     10.04305         0.000049      0.000095      1.750846
      1.27152      1.47874      8.77152        -1.784387      0.000019     -0.750875
     11.71025      1.47874      8.77152         1.784396      0.000014     -0.750874
      0.00000      2.95748     10.74544         0.000001      0.000035     -1.422235
      0.00000      2.95748     13.28849         0.000002      0.000015     -0.091888
     11.00785      1.47874     12.01697         0.475073      0.000108      0.050659
      1.97392      1.47874     12.01697        -0.475059      0.000160      0.050668
      9.73633      2.95748     13.99089         0.000165      0.001061     -0.132851
      9.73633      2.95748     16.53394        -0.000487      0.003203      0.103068
      1.27152      1.47874     15.26241        -0.397199      0.000501      0.082654
     11.71025      1.47874     15.26241         0.397545      0.000311      0.082610
     12.98174      2.95698     17.25160         0.000011      0.001561     -0.032463
     12.98170      2.95775     19.80090         0.000115      0.000301      0.047078
     11.03571      1.47817     18.52292         0.025950      0.002167     -0.010505
      1.94590      1.47787     18.52243        -0.025752      0.002227     -0.010260
      9.74237      2.95597     20.48997        -0.010817      0.000015     -0.026069
      9.73317      2.95874     23.04284        -0.000817     -0.010023      0.172309
      1.21761      1.47912     21.92995         0.085962     -0.002371      0.049273
     11.76322      1.47891     21.92876        -0.085063     -0.002413      0.049896
      9.73633      5.91497      7.50000         0.000015      0.000009      1.841542
      9.73633      5.91497     10.04305         0.000024      0.000010      1.750939
      1.27152      4.43622      8.77152        -1.784372      0.000015     -0.750869
     11.71025      4.43622      8.77152         1.784371      0.000017     -0.750869
      0.00000      5.91497     10.74544         0.000003     -0.000005     -1.422224
      0.00000      5.91497     13.28849        -0.000001     -0.000001     -0.091964
     11.00785      4.43622     12.01697         0.475027      0.000125      0.050637
      1.97392      4.43622     12.01697        -0.475014      0.000074      0.050647
      9.73633      5.91497     13.99089         0.000776      0.000433     -0.132711
      9.73633      5.91497     16.53394        -0.002770      0.000335      0.104229
      1.27152      4.43622     15.26241        -0.397204     -0.000364      0.083341
     11.71025      4.43622     15.26241         0.397550     -0.000170      0.083266
      0.00001      5.91497     17.25149         0.000019      0.000004     -0.032130
      0.00001      5.91497     19.80038        -0.000005     -0.000001      0.046454
     11.03593      4.43560     18.52160         0.026045     -0.001013     -0.013083
      1.94576      4.43582     18.52140        -0.026009     -0.001017     -0.012965
      9.74771      5.91455     20.48935        -0.009531     -0.000101     -0.038377
      9.71925      5.91572     23.04078         0.003712     -0.002507      0.116282
      1.21712      4.43675     21.93264         0.085992     -0.004383      0.045109
     11.76397      4.43711     21.93292        -0.085176     -0.004566      0.044624
      3.24544      8.87245      7.50000        -0.000026     -0.000063      1.841541
      3.24544      8.87245     10.04305        -0.000043     -0.000098      1.750831
      7.76241      7.39371      8.77152        -1.784304     -0.000162     -0.750887
      5.21936      7.39371      8.77152         1.784308     -0.000162     -0.750902
      6.49089      8.87245     10.74544        -0.000001     -0.001092     -1.422910
      6.49089      8.87245     13.28849         0.000040     -0.002657     -0.096527
      4.51697      7.39371     12.01697         0.475070     -0.000379      0.050652
      8.46481      7.39371     12.01697        -0.475040     -0.000332      0.050666
      3.24544      8.87245     13.99089        -0.000164     -0.001054     -0.132876
      3.24544      8.87245     16.53394         0.000502     -0.003198      0.103097
      7.76241      7.39371     15.26241        -0.396124     -0.012366      0.080779
      5.21936      7.39371     15.26241         0.396657     -0.012383      0.080764
      6.49101      8.86544     17.25137        -0.000067     -0.014430     -0.009734
      6.49025      8.87855     19.79304         0.000070     -0.005951      0.086430
      4.54287      7.39344     18.52790         0.051124     -0.004082     -0.007656
      8.43900      7.39366     18.52835        -0.051216     -0.004142     -0.007739
      3.23949      8.87396     20.48998         0.010834     -0.000013     -0.026054
      3.24867      8.87119     23.04285         0.000844      0.010013      0.172303
      7.71515      7.40554     21.90162        -0.015964     -0.131367      0.174470
      5.26846      7.40510     21.90638         0.011355     -0.128060      0.169370
      3.24544      0.00000      7.50000        -0.000028      0.000012      1.841538
      3.24544      0.00000     10.04305        -0.000092      0.000016      1.750714
      7.76241     10.35119      8.77152        -1.784237     -0.000134     -0.750922
      5.21936     10.35119      8.77152         1.784255     -0.000129     -0.750926
      6.49089      0.00000     10.74544         0.000000     -0.000001     -1.423983
      6.49089      0.00000     13.28849         0.000005     -0.000003     -0.104418
      4.51697     10.35119     12.01697         0.474027     -0.000219      0.050490
      8.46481     10.35119     12.01697        -0.473992     -0.000264      0.050503
      3.24544      0.00000     13.99089         0.000061      0.000403     -0.132930
      3.24544      0.00000     16.53394        -0.000870      0.000246      0.094501
      7.76241     10.35119     15.26241        -0.393866     -0.006263      0.083996
      5.21936     10.35119     15.26241         0.394395     -0.006246      0.084013
      6.49089     11.82993     17.24611         0.000020      0.000000     -0.009821
      6.49090     11.82993     19.79212        -0.000003     -0.000002      0.050290
      4.54322     10.35105     18.52146         0.040953     -0.000994     -0.011803
      8.43857     10.35090     18.52170        -0.040953     -0.001004     -0.011724
      3.24419     11.82989     20.49068         0.003091     -0.000075     -0.022927
      3.24551     11.82988     23.04398        -0.001768     -0.000098      0.183850
      7.71029     10.35387     21.92256         0.063797     -0.021596      0.045536
      5.27233     10.35394     21.92385        -0.065090     -0.021289      0.044801
      3.24544      2.95748      7.50000        -0.000035      0.000073      1.841535
      3.24544      2.95748     10.04305        -0.000040      0.000090      1.750904
      7.76241      1.47874      8.77152        -1.784262      0.000140     -0.750922
      5.21936      1.47874      8.77152         1.784254      0.000141     -0.750920
      6.49089      2.95748     10.74544         0.000002      0.001095     -1.422910
      6.49089      2.95748     13.28849        -0.000030      0.002666     -0.096533
      4.51697      1.47874     12.01697         0.473994      0.000265      0.050498
      8.46481      1.47874     12.01697        -0.474014      0.000219      0.050491
      3.24544      2.95748     13.99089        -0.000157      0.001072     -0.132362
      3.24544      2.95748     16.53394         0.000112      0.003130      0.103156
      7.76241      1.47874     15.26241        -0.394360      0.006242      0.083997
      5.21936      1.47874     15.26241         0.393893      0.006255      0.084011
      6.49078      2.96449     17.25137         0.000102      0.014430     -0.009734
      6.49154      2.95138     19.79304        -0.000055      0.005957      0.086426
      4.54322      1.47903     18.52169         0.040949      0.001004     -0.011736
      8.43858      1.47889     18.52148        -0.040960      0.000991     -0.011793
      3.23735      2.95535     20.48933         0.011716      0.000124     -0.025301
      3.24909      2.95866     23.04214         0.000653     -0.010695      0.172301
      7.70952      1.47599     21.92384         0.065057      0.021283      0.044786
      5.27156      1.47606     21.92257        -0.063838      0.021597      0.045536
      3.24544      5.91497      7.50000        -0.000019     -0.000007      1.841534
      3.24544      5.91497     10.04305        -0.000024     -0.000014      1.750932
      7.76241      4.43622      8.77152        -1.784307      0.000163     -0.750905
      5.21936      4.43622      8.77152         1.784308      0.000156     -0.750892
      6.49089      5.91497     10.74544         0.000005     -0.000004     -1.421492
      6.49089      5.91497     13.28849         0.000002     -0.000005     -0.078117
      4.51697      4.43622     12.01697         0.475050      0.000330      0.050662
      8.46481      4.43622     12.01697        -0.475063      0.000378      0.050656
      3.24544      5.91497     13.99089        -0.000769     -0.000432     -0.132737
      3.24544      5.91497     16.53394         0.002784     -0.000337      0.104265
      7.76241      4.43622     15.26241        -0.396613      0.012383      0.080750
      5.21936      4.43622     15.26241         0.396164      0.012365      0.080792
      6.49090      5.91497     17.25736         0.000019     -0.000001     -0.007807
      6.49090      5.91496     19.81930         0.000015     -0.000003      0.208699
      4.54280      4.43627     18.52834         0.051211      0.004140     -0.007745
      8.43893      4.43649     18.52791        -0.051132      0.004080     -0.007638
      3.23417      5.91538     20.48937         0.009545      0.000102     -0.038390
      3.26261      5.91421     23.04081        -0.003750      0.002508      0.116267
      7.71344      4.42482     21.90630        -0.011448      0.128080      0.169411
      5.26674      4.42440     21.90170         0.015888      0.131331      0.174408
 -----------------------------------------------------------------------------------
    total drift:                               -0.000057      0.000069     -0.029620


--------------------------------------------------------------------------------------------------------



  FREE ENERGIE OF THE ION-ELECTRON SYSTEM (eV)
  ---------------------------------------------------
  free  energy   TOTEN  =     -1739.96918445 eV

  energy  without entropy=    -1739.96918445  energy(sigma->0) =    -1739.96918445
 


--------------------------------------------------------------------------------------------------------


    POTLOK:  cpu time      0.7644: real time      0.7676


--------------------------------------------------------------------------------------------------------


     LOOP+:  cpu time   1664.5937: real time   1673.5576
    4ORBIT:  cpu time      0.0000: real time      0.0000

 total amount of memory used by VASP MPI-rank0   628480. kBytes
=======================================================================

   base      :      30000. kBytes
   nonl-proj :     390773. kBytes
   fftplans  :      41481. kBytes
   grid      :      57314. kBytes
   one-center:       1866. kBytes
   wavefun   :     107046. kBytes
 
  
  
 General timing and accounting informations for this job:
 ========================================================
  
                  Total CPU time used (sec):     1707.160
                            User time (sec):     1701.523
                          System time (sec):        5.637
                         Elapsed time (sec):     1717.169
  
                   Maximum memory used (kb):     1283712.
                   Average memory used (kb):          N/A
  
                          Minor page faults:       116963
                          Major page faults:           88
                 Voluntary context switches:         3045
