 vasp.6.3.0 20Jan22 (build Aug 21 2024 11:13:42) complex                         
 executed on        HPECrayEX_GCC date 2024.11.26  18:02:34
 running  512 mpi-ranks, with    1 threads/rank
 distrk:  each k-point on  512 cores,    1 groups
 distr:  one band on NCORE=  16 cores,   32 groups


--------------------------------------------------------------------------------------------------------


 INCAR:
   SYSTEM = TiO2
   ISMEAR = 0
   SIGMA = 0.05
   EDIFF = 1E-4
   ALGO = ALL
   ISTART = 0
   IBRION = -1
   NSW = 0
   ISYM = 0
   ISIF = 2
   EDIFFG = -0.01
   DIPOL = 0.5 0.5 0.5
   IDIPOL = 3
   LDIPOL = .TRUE.
   METAGGA = R2SCAN
   LUSE_VDW = .TRUE.
   BPARAM = 11.95
   CPARAM = 0.0093
   LASPH = .TRUE.
   ENCUT = 600
   PREC = Accurate
   LASPH = .TRUE.
   LREAL = .FALSE.
   ISPIN = 1
   NELM = 200
   NELMIN = 8
   NCORE = 16
   KPAR = 1
   LWAVE = .FALSE.
   LCHARG = .FALSE.

 POTCAR:    PAW_PBE Ti_pv 07Sep2000               
 POTCAR:    PAW_PBE O 08Apr2002                   
 -----------------------------------------------------------------------------
|                                                                             |
|               ----> ADVICE to this user running VASP <----                  |
|                                                                             |
|     You have switched on vdW-DFT.                                           |
|     This routine was written and supplied by Jiri Klimes. We recommend      |
|     that you carefully read and cite the following publications:            |
|       J. Klimes, D.R. Bowler, A. Michelides                                 |
|          J. Phys.: Cond Matt. 22 022201 (2010)                              |
|       J. Klimes, D.R. Bowler, A. Michelides                                 |
|          Phys. Rev. B. 83, 195131 (2011)                                    |
|     and references therein.                                                 |
|                                                                             |
 -----------------------------------------------------------------------------

 POTCAR:    PAW_PBE Ti_pv 07Sep2000               
   SHA256 =  f757a1b2c6d082f4c628fa3d987464a8763bf92e53844ac0500b0e2ddc9ce5c0 Ti_pv/POTCAR          
   COPYR  = (c) Copyright 07Sep2000 Georg Kresse                                                    
   COPYR  = This file is part of the software VASP. Any use, copying, and all other rights are regul
   COPYR  = If you do not have a valid VASP license, you may not use, copy or distribute this file. 
   VRHFIN =Ti: d3 s1                                                                                
   LEXCH  = PE                                                                                      
   EATOM  =  1042.5995 eV,   76.6289 Ry                                                             
                                                                                                    
   TITEL  = PAW_PBE Ti_pv 07Sep2000                                                                 
   LULTRA =        F    use ultrasoft PP ?                                                          
   IUNSCR =        1    unscreen: 0-lin 1-nonlin 2-no                                               
   RPACOR =    2.200    partial core radius                                                         
   POMASS =   47.880; ZVAL   =   10.000    mass and valenz                                          
   RCORE  =    2.500    outmost cutoff radius                                                       
   RWIGS  =    2.500; RWIGS  =    1.323    wigner-seitz radius (au A)                               
   ENMAX  =  222.335; ENMIN  =  166.751 eV                                                          
   RCLOC  =    1.701    cutoff for local pot                                                        
   LCOR   =        T    correct aug charges                                                         
   LPAW   =        T    paw PP                                                                      
   EAUG   =  482.848                                                                                
   DEXC   =    0.000                                                                                
   RMAX   =    2.564    core radius for proj-oper                                                   
   RAUG   =    1.300    factor for augmentation sphere                                              
   RDEP   =    2.538    radius for radial grids                                                     
   RDEPT  =    1.952    core radius for aug-charge                                                  
                                                                                                    
   Atomic configuration                                                                             
    8 entries                                                                                       
     n  l   j            E        occ.                                                              
     1  0  0.50     -4865.3608   2.0000                                                             
     2  0  0.50      -533.1368   2.0000                                                             
     2  1  1.50      -440.5031   6.0000                                                             
     3  0  0.50       -59.3186   2.0000                                                             
     3  1  1.50       -35.7012   6.0000                                                             
     3  2  2.50        -1.9157   3.0000                                                             
     4  0  0.50        -3.7291   1.0000                                                             
     4  3  2.50        -1.3606   0.0000                                                             
   Description                                                                                      
     l       E           TYP  RCUT    TYP  RCUT                                                     
     1    -35.7012140     23  2.300                                                                 
     1     -1.3605826     23  2.300                                                                 
     2     -1.9156996     23  2.500                                                                 
     2     -0.4063033     23  2.500                                                                 
     0     -3.7290856     23  2.500                                                                 
     0     20.4087390     23  2.500                                                                 
  local pseudopotential read in
  partial core-charges read in
  partial kinetic energy density read in
  atomic valenz-charges read in
  non local Contribution for L=           1  read in
    real space projection operators read in
  non local Contribution for L=           1  read in
    real space projection operators read in
  non local Contribution for L=           2  read in
    real space projection operators read in
  non local Contribution for L=           2  read in
    real space projection operators read in
  non local Contribution for L=           0  read in
    real space projection operators read in
  non local Contribution for L=           0  read in
    real space projection operators read in
    PAW grid and wavefunctions read in

   number of l-projection  operators is LMAX  =           6
   number of lm-projection operators is LMMAX =          18

 POTCAR:    PAW_PBE O 08Apr2002                   
   SHA256 =  818f92134a0a090dccd8ba1447fa70422a3b330e708bb4f08108d8ae51209ddf O/POTCAR              
   COPYR  = (c) Copyright 08Apr2002 Georg Kresse                                                    
   COPYR  = This file is part of the software VASP. Any use, copying, and all other rights are regul
   COPYR  = If you do not have a valid VASP license, you may not use, copy or distribute this file. 
   VRHFIN =O: s2p4                                                                                  
   LEXCH  = PE                                                                                      
   EATOM  =   432.3788 eV,   31.7789 Ry                                                             
                                                                                                    
   TITEL  = PAW_PBE O 08Apr2002                                                                     
   LULTRA =        F    use ultrasoft PP ?                                                          
   IUNSCR =        1    unscreen: 0-lin 1-nonlin 2-no                                               
   RPACOR =    1.200    partial core radius                                                         
   POMASS =   16.000; ZVAL   =    6.000    mass and valenz                                          
   RCORE  =    1.520    outmost cutoff radius                                                       
   RWIGS  =    1.550; RWIGS  =    0.820    wigner-seitz radius (au A)                               
   ENMAX  =  400.000; ENMIN  =  300.000 eV                                                          
   ICORE  =        2    local potential                                                             
   LCOR   =        T    correct aug charges                                                         
   LPAW   =        T    paw PP                                                                      
   EAUG   =  605.392                                                                                
   DEXC   =    0.000                                                                                
   RMAX   =    1.553    core radius for proj-oper                                                   
   RAUG   =    1.300    factor for augmentation sphere                                              
   RDEP   =    1.550    radius for radial grids                                                     
   RDEPT  =    1.329    core radius for aug-charge                                                  
                                                                                                    
   Atomic configuration                                                                             
    4 entries                                                                                       
     n  l   j            E        occ.                                                              
     1  0  0.50      -514.6923   2.0000                                                             
     2  0  0.50       -23.9615   2.0000                                                             
     2  1  0.50        -9.0305   4.0000                                                             
     3  2  1.50        -9.5241   0.0000                                                             
   Description                                                                                      
     l       E           TYP  RCUT    TYP  RCUT                                                     
     0    -23.9615318     23  1.200                                                                 
     0     -9.5240782     23  1.200                                                                 
     1     -9.0304911     23  1.520                                                                 
     1      8.1634956     23  1.520                                                                 
     2     -9.5240782      7  1.500                                                                 
  local pseudopotential read in
  partial core-charges read in
  partial kinetic energy density read in
  kinetic energy density of atom read in
  atomic valenz-charges read in
  non local Contribution for L=           0  read in
    real space projection operators read in
  non local Contribution for L=           0  read in
    real space projection operators read in
  non local Contribution for L=           1  read in
    real space projection operators read in
  non local Contribution for L=           1  read in
    real space projection operators read in
    PAW grid and wavefunctions read in

   number of l-projection  operators is LMAX  =           4
   number of lm-projection operators is LMMAX =           8

 -----------------------------------------------------------------------------
|                                                                             |
|               ----> ADVICE to this user running VASP <----                  |
|                                                                             |
|     You have a (more or less) 'large supercell' and for larger cells it     |
|     might be more efficient to use real-space projection operators.         |
|     Therefore, try LREAL= Auto in the INCAR file.                           |
|     Mind: For very accurate calculation, you might also keep the            |
|     reciprocal projection scheme (i.e. LREAL=.FALSE.).                      |
|                                                                             |
 -----------------------------------------------------------------------------

  PAW_PBE Ti_pv 07Sep2000               :
 energy of atom  1       EATOM=-1042.5995
 kinetic energy error for atom=    0.0007 (will be added to EATOM!!)
  PAW_PBE O 08Apr2002                   :
 energy of atom  2       EATOM= -432.3788
 kinetic energy error for atom=    0.0168 (will be added to EATOM!!)


 POSCAR: Ti  O
  positions in direct lattice
  No initial velocities read in

 METAGGA = R2SCA    LMAXTAU =  6    LMIXTAU =  F

 exchange correlation table for  LEXCH =        8
   RHO(1)=    0.500       N(1)  =     2000
   RHO(2)=  100.500       N(2)  =     4000



--------------------------------------------------------------------------------------------------------


 ion  position               nearest neighbor table
   1  0.750  0.625  0.287-  81 1.96  82 1.96 141 1.96 142 1.96  84 1.98 163 1.98  11 2.97  31 2.97

   2  0.000  0.750  0.287-  83 1.96  84 1.96 103 1.96 104 1.96  85 1.98  32 2.97  12 2.97
   3  0.000  0.625  0.393-  85 1.96  86 1.96 145 1.96 146 1.96  87 1.98  88 1.98  13 2.97  33 2.97

   4  0.750  0.750  0.393-  87 1.96 107 1.96 168 1.96 188 1.96  89 1.98  82 1.98  14 2.97  34 2.97

   5  0.750  0.625  0.500-  89 1.96  90 1.96 149 1.96 150 1.96  92 1.98 171 1.98  15 2.97  35 2.97

   6  0.000  0.750  0.500-  91 1.96  92 1.96 111 1.96 112 1.96  86 1.98  93 2.00  16 2.97  36 2.97

   7  0.006  0.625  0.604-  96 1.88 153 1.90  93 1.90 154 2.02  94 2.02  95 2.04  37 2.97  17 2.97

   8  0.755  0.750  0.611-  97 1.87  95 1.94 115 1.94 176 2.02 196 2.02  90 2.11  38 2.97  18 2.97

   9  0.749  0.625  0.720-  98 1.84 158 1.84 179 2.03 100 2.04 157 2.10  97 2.10  19 2.97  39 2.97

  10  1.000  0.750  0.708-  94 1.81 120 1.95 119 1.95 100 1.95  99 1.96  20 2.97  40 2.97
  11  0.750  0.875  0.287-  81 1.96  82 1.96 101 1.96 102 1.96 104 1.98 183 1.98   1 2.97  21 2.97

  12  0.000  0.000  0.287- 103 1.96 104 1.96 123 1.96 124 1.96 105 1.98  22 2.97   2 2.97
  13  0.000  0.875  0.393-  85 1.96  86 1.96 105 1.96 106 1.96 107 1.98 108 1.98   3 2.97  23 2.97

  14  0.750  0.000  0.393- 107 1.96 127 1.96 188 1.96 208 1.96 109 1.98 102 1.98   4 2.97  24 2.97

  15  0.750  0.875  0.500-  89 1.96  90 1.96 109 1.96 110 1.96 112 1.98 191 1.98   5 2.97  25 2.97

  16  0.000  0.000  0.500- 111 1.96 112 1.96 131 1.96 132 1.96 106 1.98 113 2.00   6 2.97  26 2.97

  17  0.006  0.875  0.604- 116 1.88  93 1.90 113 1.90 114 2.02  94 2.02 115 2.04  27 2.97   7 2.97

  18  0.755  1.000  0.611- 117 1.87 115 1.94 135 1.94 196 2.02 216 2.02 110 2.11  28 2.97   8 2.97

  19  0.749  0.875  0.720- 118 1.84  98 1.84 199 2.03 120 2.04  97 2.10 117 2.10  29 2.97   9 2.97

  20  1.000  0.000  0.708- 114 1.81 140 1.95 120 1.95 139 1.95 119 1.95  30 2.97  10 2.97
  21  0.750  0.125  0.287- 101 1.96 102 1.96 121 1.96 122 1.96 124 1.98 203 1.98  11 2.97  31 2.97

  22  0.000  0.250  0.287- 123 1.96 124 1.96 143 1.96 144 1.96 125 1.98  32 2.97  12 2.97
  23  0.000  0.125  0.393- 105 1.96 106 1.96 125 1.96 126 1.96 127 1.98 128 1.98  13 2.97  33 2.97

  24  0.750  0.250  0.393- 127 1.96 147 1.96 208 1.96 228 1.96 129 1.98 122 1.98  14 2.97  34 2.97

  25  0.750  0.125  0.500- 109 1.96 110 1.96 129 1.96 130 1.96 132 1.98 211 1.98  15 2.97  35 2.97

  26  0.000  0.250  0.500- 131 1.96 132 1.96 151 1.96 152 1.96 126 1.98 133 2.00  16 2.97  36 2.97

  27  0.006  0.125  0.604- 136 1.88 133 1.90 113 1.90 114 2.02 134 2.02 135 2.04  17 2.97  37 2.97

  28  0.755  0.250  0.611- 137 1.87 155 1.94 135 1.94 236 2.02 216 2.02 130 2.11  38 2.97  18 2.97

  29  0.749  0.125  0.720- 118 1.84 138 1.84 219 2.03 140 2.04 137 2.10 117 2.10  19 2.97  39 2.97

  30  1.000  0.250  0.708- 134 1.81 140 1.95 139 1.95 160 1.95 159 1.96  20 2.97  40 2.97
  31  0.750  0.375  0.287- 121 1.96 122 1.96 141 1.96 142 1.96 144 1.98 223 1.98   1 2.97  21 2.97

  32  0.000  0.500  0.287-  83 1.96  84 1.96 143 1.96 144 1.96 145 1.98  22 2.97   2 2.97
  33  0.000  0.375  0.393- 125 1.96 126 1.96 145 1.96 146 1.96 147 1.98 148 1.98   3 2.97  23 2.97

  34  0.750  0.500  0.393-  87 1.96 147 1.96 168 1.96 228 1.96 142 1.98 149 1.98   4 2.97  24 2.97

  35  0.750  0.375  0.500- 129 1.96 130 1.96 149 1.96 150 1.96 152 1.98 231 1.98   5 2.97  25 2.97

  36  0.000  0.500  0.500-  91 1.96  92 1.96 151 1.96 152 1.96 146 1.98 153 2.00   6 2.97  26 2.97

  37  0.006  0.375  0.604- 156 1.88 153 1.90 133 1.90 154 2.02 134 2.02 155 2.04   7 2.97  27 2.97

  38  0.755  0.500  0.611- 157 1.87 155 1.94  95 1.94 236 2.02 176 2.02 150 2.11  28 2.97   8 2.97

  39  0.749  0.375  0.720- 138 1.84 158 1.84 239 2.03 160 2.04 157 2.10 137 2.10  29 2.97   9 2.97

  40  0.999  0.500  0.708- 154 1.81 160 1.95 100 1.95 159 1.95  99 1.95  10 2.97  30 2.97
  41  0.250  0.625  0.287- 161 1.96 162 1.96 221 1.96 222 1.96  83 1.98 164 1.98  51 2.97  71 2.97

  42  0.500  0.750  0.287- 163 1.96 164 1.96 183 1.96 184 1.96 165 1.98  72 2.97  52 2.97
  43  0.500  0.625  0.393- 165 1.96 166 1.96 225 1.96 226 1.96 167 1.98 168 1.98  53 2.97  73 2.97

  44  0.250  0.750  0.393-  88 1.96 108 1.96 167 1.96 187 1.96 169 1.98 162 1.98  54 2.97  74 2.97

  45  0.250  0.625  0.500- 169 1.96 170 1.96 229 1.96 230 1.96  91 1.98 172 1.98  55 2.97  75 2.97

  46  0.500  0.750  0.500- 171 1.96 172 1.96 191 1.96 192 1.96 166 1.98 173 2.00  56 2.97  76 2.97

  47  0.506  0.624  0.605- 176 1.88 233 1.90 173 1.91 174 2.02 234 2.02 175 2.04  77 2.95  57 2.97

  48  0.255  0.750  0.611- 177 1.87 195 1.93 175 1.94 116 2.02  96 2.02 170 2.11  58 2.97  78 2.97

  49  0.249  0.625  0.720- 178 1.84 238 1.84  99 2.03 180 2.04 177 2.10 237 2.10  59 2.97  79 2.98

  50  0.500  0.750  0.708- 174 1.81 180 1.94 179 1.94 200 1.95 199 1.96  60 2.97  80 2.97
  51  0.250  0.875  0.287- 161 1.96 162 1.96 181 1.96 182 1.96 103 1.98 184 1.98  41 2.97  61 2.97

  52  0.500  0.000  0.287- 183 1.96 184 1.96 203 1.96 204 1.96 185 1.98  62 2.97  42 2.97
  53  0.500  0.875  0.393- 165 1.96 166 1.96 185 1.96 186 1.96 187 1.98 188 1.98  43 2.97  63 2.97

  54  0.250  0.000  0.393- 108 1.96 128 1.96 187 1.96 207 1.96 189 1.98 182 1.98  44 2.97  64 2.97

  55  0.250  0.875  0.500- 169 1.96 170 1.96 189 1.96 190 1.96 111 1.98 192 1.98  45 2.97  65 2.97

  56  0.500  0.000  0.500- 191 1.96 192 1.96 211 1.96 212 1.96 186 1.98 193 2.00  46 2.97  66 2.97

  57  0.506  0.875  0.604- 196 1.88 173 1.90 193 1.90 174 2.01 194 2.03 195 2.04  47 2.97  67 2.98

  58  0.255  1.000  0.611- 197 1.87 195 1.93 215 1.93 116 2.02 136 2.02 190 2.11  48 2.97  68 2.97

  59  0.250  0.875  0.720- 198 1.84 178 1.84 200 2.03 119 2.04 197 2.10 177 2.10  49 2.97  69 2.97

  60  0.500  1.000  0.708- 194 1.81 219 1.95 199 1.95 200 1.95 220 1.95  70 2.97  50 2.97
  61  0.250  0.125  0.287- 181 1.96 182 1.96 201 1.96 202 1.96 123 1.98 204 1.98  51 2.97  71 2.97

  62  0.500  0.250  0.287- 203 1.96 204 1.96 223 1.96 224 1.96 205 1.98  72 2.97  52 2.97
  63  0.500  0.125  0.393- 185 1.96 186 1.96 205 1.96 206 1.96 207 1.98 208 1.98  53 2.97  73 2.97

  64  0.250  0.250  0.393- 128 1.96 148 1.96 207 1.96 227 1.96 209 1.98 202 1.98  54 2.97  74 2.97

  65  0.250  0.125  0.500- 189 1.96 190 1.96 209 1.96 210 1.96 131 1.98 212 1.98  55 2.97  75 2.97

  66  0.500  0.250  0.500- 211 1.96 212 1.96 231 1.96 232 1.96 206 1.98 213 2.00  56 2.97  76 2.97

  67  0.506  0.125  0.604- 216 1.88 213 1.90 193 1.90 214 2.01 194 2.03 215 2.04  77 2.97  57 2.98

  68  0.255  0.250  0.611- 217 1.87 215 1.93 235 1.94 136 2.02 156 2.02 210 2.11  58 2.97  78 2.97

  69  0.250  0.125  0.720- 198 1.84 218 1.84 220 2.03 139 2.04 197 2.10 217 2.10  79 2.97  59 2.97

  70  0.500  0.250  0.708- 214 1.81 240 1.94 239 1.94 220 1.95 219 1.96  60 2.97  80 2.97
  71  0.250  0.375  0.287- 201 1.96 202 1.96 221 1.96 222 1.96 143 1.98 224 1.98  41 2.97  61 2.97

  72  0.500  0.500  0.287- 163 1.96 164 1.96 223 1.96 224 1.96 225 1.98  62 2.97  42 2.97
  73  0.500  0.375  0.393- 205 1.96 206 1.96 225 1.96 226 1.96 227 1.98 228 1.98  43 2.97  63 2.97

  74  0.250  0.500  0.393-  88 1.96 148 1.96 167 1.96 227 1.96 222 1.98 229 1.98  44 2.97  64 2.97

  75  0.250  0.375  0.500- 209 1.96 210 1.96 229 1.96 230 1.96 151 1.98 232 1.98  45 2.97  65 2.97

  76  0.500  0.500  0.500- 171 1.96 172 1.96 231 1.96 232 1.96 226 1.98 233 2.01  46 2.97  66 2.97

  77  0.506  0.376  0.605- 236 1.88 233 1.90 213 1.91 214 2.02 234 2.02 235 2.04  47 2.95  67 2.97

  78  0.255  0.500  0.611- 237 1.87 235 1.94 175 1.94 156 2.02  96 2.02 230 2.11  68 2.97  48 2.97

  79  0.249  0.375  0.720- 218 1.84 238 1.84 159 2.03 240 2.04 217 2.10 237 2.10  69 2.97  49 2.98

  80  0.499  0.500  0.710- 234 1.84 180 1.96 240 1.96 179 1.96 239 1.96  50 2.97  70 2.97
  81  0.750  0.750  0.245-   1 1.96  11 1.96
  82  0.750  0.750  0.329-   1 1.96  11 1.96   4 1.98
  83  0.098  0.625  0.287-   2 1.96  32 1.96  41 1.98
  84  0.902  0.625  0.287-   2 1.96  32 1.96   1 1.98
  85  0.000  0.750  0.352-   3 1.96  13 1.96   2 1.98
  86  0.000  0.750  0.435-   3 1.96  13 1.96   6 1.98
  87  0.848  0.625  0.393-   4 1.96  34 1.96   3 1.98
  88  0.152  0.625  0.393-  44 1.96  74 1.96   3 1.98
  89  0.750  0.750  0.458-   5 1.96  15 1.96   4 1.98
  90  0.750  0.750  0.542-   5 1.96  15 1.96   8 2.11
  91  0.098  0.625  0.500-   6 1.96  36 1.96  45 1.98
  92  0.902  0.625  0.500-   6 1.96  36 1.96   5 1.98
  93  0.000  0.750  0.566-  17 1.90   7 1.90   6 2.00
  94  0.000  0.750  0.649-  10 1.81   7 2.02  17 2.02
  95  0.850  0.625  0.607-   8 1.94  38 1.94   7 2.04
  96  0.150  0.625  0.607-   7 1.88  48 2.02  78 2.02
  97  0.750  0.750  0.672-   8 1.87  19 2.10   9 2.10
  98  0.749  0.750  0.756-   9 1.84  19 1.84
  99  0.093  0.625  0.720-  40 1.95  10 1.96  49 2.03
 100  0.906  0.625  0.719-  40 1.95  10 1.95   9 2.04
 101  0.750  0.000  0.245-  11 1.96  21 1.96
 102  0.750  0.000  0.329-  11 1.96  21 1.96  14 1.98
 103  0.098  0.875  0.287-   2 1.96  12 1.96  51 1.98
 104  0.902  0.875  0.287-   2 1.96  12 1.96  11 1.98
 105  0.000  0.000  0.352-  13 1.96  23 1.96  12 1.98
 106  0.000  0.000  0.435-  13 1.96  23 1.96  16 1.98
 107  0.848  0.875  0.393-   4 1.96  14 1.96  13 1.98
 108  0.152  0.875  0.393-  44 1.96  54 1.96  13 1.98
 109  0.750  0.000  0.458-  15 1.96  25 1.96  14 1.98
 110  0.750  0.000  0.542-  15 1.96  25 1.96  18 2.11
 111  0.098  0.875  0.500-   6 1.96  16 1.96  55 1.98
 112  0.902  0.875  0.500-   6 1.96  16 1.96  15 1.98
 113  0.000  1.000  0.566-  27 1.90  17 1.90  16 2.00
 114  0.000  0.000  0.649-  20 1.81  27 2.02  17 2.02
 115  0.850  0.875  0.607-  18 1.94   8 1.94  17 2.04
 116  0.150  0.875  0.607-  17 1.88  58 2.02  48 2.02
 117  0.750  0.000  0.672-  18 1.87  29 2.10  19 2.10
 118  0.750  0.000  0.756-  29 1.84  19 1.84
 119  0.093  0.875  0.719-  10 1.95  20 1.95  59 2.04
 120  0.906  0.875  0.719-  10 1.95  20 1.95  19 2.04
 121  0.750  0.250  0.245-  21 1.96  31 1.96
 122  0.750  0.250  0.329-  21 1.96  31 1.96  24 1.98
 123  0.098  0.125  0.287-  12 1.96  22 1.96  61 1.98
 124  0.902  0.125  0.287-  12 1.96  22 1.96  21 1.98
 125  0.000  0.250  0.352-  23 1.96  33 1.96  22 1.98
 126  0.000  0.250  0.435-  23 1.96  33 1.96  26 1.98
 127  0.848  0.125  0.393-  14 1.96  24 1.96  23 1.98
 128  0.152  0.125  0.393-  54 1.96  64 1.96  23 1.98
 129  0.750  0.250  0.458-  25 1.96  35 1.96  24 1.98
 130  0.750  0.250  0.542-  25 1.96  35 1.96  28 2.11
 131  0.098  0.125  0.500-  16 1.96  26 1.96  65 1.98
 132  0.902  0.125  0.500-  16 1.96  26 1.96  25 1.98
 133  0.000  0.250  0.566-  27 1.90  37 1.90  26 2.00
 134  0.000  0.250  0.649-  30 1.81  37 2.02  27 2.02
 135  0.850  0.125  0.607-  18 1.94  28 1.94  27 2.04
 136  0.150  0.125  0.607-  27 1.88  58 2.02  68 2.02
 137  0.750  0.250  0.672-  28 1.87  29 2.10  39 2.10
 138  0.749  0.250  0.756-  39 1.84  29 1.84
 139  0.093  0.125  0.719-  30 1.95  20 1.95  69 2.04
 140  0.906  0.125  0.719-  30 1.95  20 1.95  29 2.04
 141  0.750  0.500  0.245-   1 1.96  31 1.96
 142  0.750  0.500  0.329-   1 1.96  31 1.96  34 1.98
 143  0.098  0.375  0.287-  22 1.96  32 1.96  71 1.98
 144  0.902  0.375  0.287-  22 1.96  32 1.96  31 1.98
 145  0.000  0.500  0.352-   3 1.96  33 1.96  32 1.98
 146  0.000  0.500  0.435-   3 1.96  33 1.96  36 1.98
 147  0.848  0.375  0.393-  24 1.96  34 1.96  33 1.98
 148  0.152  0.375  0.393-  64 1.96  74 1.96  33 1.98
 149  0.750  0.500  0.458-   5 1.96  35 1.96  34 1.98
 150  0.750  0.500  0.542-   5 1.96  35 1.96  38 2.11
 151  0.098  0.375  0.500-  26 1.96  36 1.96  75 1.98
 152  0.902  0.375  0.500-  26 1.96  36 1.96  35 1.98
 153  0.000  0.500  0.566-  37 1.90   7 1.90  36 2.00
 154  0.000  0.500  0.649-  40 1.81  37 2.02   7 2.02
 155  0.850  0.375  0.607-  28 1.94  38 1.94  37 2.04
 156  0.150  0.375  0.607-  37 1.88  68 2.02  78 2.02
 157  0.750  0.500  0.672-  38 1.87   9 2.10  39 2.10
 158  0.749  0.500  0.756-   9 1.84  39 1.84
 159  0.093  0.375  0.720-  40 1.95  30 1.96  79 2.03
 160  0.906  0.375  0.719-  40 1.95  30 1.95  39 2.04
 161  0.250  0.750  0.245-  41 1.96  51 1.96
 162  0.250  0.750  0.329-  41 1.96  51 1.96  44 1.98
 163  0.598  0.625  0.287-  42 1.96  72 1.96   1 1.98
 164  0.402  0.625  0.287-  42 1.96  72 1.96  41 1.98
 165  0.500  0.750  0.352-  43 1.96  53 1.96  42 1.98
 166  0.500  0.750  0.435-  43 1.96  53 1.96  46 1.98
 167  0.348  0.625  0.393-  44 1.96  74 1.96  43 1.98
 168  0.652  0.625  0.393-   4 1.96  34 1.96  43 1.98
 169  0.250  0.750  0.458-  45 1.96  55 1.96  44 1.98
 170  0.250  0.750  0.542-  45 1.96  55 1.96  48 2.11
 171  0.598  0.625  0.500-  46 1.96  76 1.96   5 1.98
 172  0.402  0.625  0.500-  46 1.96  76 1.96  45 1.98
 173  0.500  0.749  0.566-  57 1.90  47 1.91  46 2.00
 174  0.500  0.751  0.649-  50 1.81  57 2.01  47 2.02
 175  0.350  0.625  0.607-  78 1.94  48 1.94  47 2.04
 176  0.650  0.625  0.607-  47 1.88  38 2.02   8 2.02
 177  0.249  0.750  0.672-  48 1.87  49 2.10  59 2.10
 178  0.250  0.750  0.756-  49 1.84  59 1.84
 179  0.594  0.626  0.719-  50 1.94  80 1.96   9 2.03
 180  0.405  0.627  0.718-  50 1.94  80 1.96  49 2.04
 181  0.250  0.000  0.245-  51 1.96  61 1.96
 182  0.250  0.000  0.329-  51 1.96  61 1.96  54 1.98
 183  0.598  0.875  0.287-  42 1.96  52 1.96  11 1.98
 184  0.402  0.875  0.287-  42 1.96  52 1.96  51 1.98
 185  0.500  0.000  0.352-  53 1.96  63 1.96  52 1.98
 186  0.500  0.000  0.435-  53 1.96  63 1.96  56 1.98
 187  0.348  0.875  0.393-  44 1.96  54 1.96  53 1.98
 188  0.652  0.875  0.393-   4 1.96  14 1.96  53 1.98
 189  0.250  0.000  0.458-  55 1.96  65 1.96  54 1.98
 190  0.250  0.000  0.542-  55 1.96  65 1.96  58 2.11
 191  0.598  0.875  0.500-  46 1.96  56 1.96  15 1.98
 192  0.402  0.875  0.500-  46 1.96  56 1.96  55 1.98
 193  0.500  1.000  0.565-  57 1.90  67 1.90  56 2.00
 194  0.500  1.000  0.649-  60 1.81  67 2.03  57 2.03
 195  0.350  0.875  0.607-  48 1.93  58 1.93  57 2.04
 196  0.650  0.875  0.607-  57 1.88  18 2.02   8 2.02
 197  0.250  1.000  0.672-  58 1.87  69 2.10  59 2.10
 198  0.250  1.000  0.756-  69 1.84  59 1.84
 199  0.593  0.875  0.719-  60 1.95  50 1.96  19 2.03
 200  0.406  0.875  0.719-  60 1.95  50 1.95  59 2.03
 201  0.250  0.250  0.245-  61 1.96  71 1.96
 202  0.250  0.250  0.329-  61 1.96  71 1.96  64 1.98
 203  0.598  0.125  0.287-  52 1.96  62 1.96  21 1.98
 204  0.402  0.125  0.287-  52 1.96  62 1.96  61 1.98
 205  0.500  0.250  0.352-  63 1.96  73 1.96  62 1.98
 206  0.500  0.250  0.435-  63 1.96  73 1.96  66 1.98
 207  0.348  0.125  0.393-  54 1.96  64 1.96  63 1.98
 208  0.652  0.125  0.393-  14 1.96  24 1.96  63 1.98
 209  0.250  0.250  0.458-  65 1.96  75 1.96  64 1.98
 210  0.250  0.250  0.542-  65 1.96  75 1.96  68 2.11
 211  0.598  0.125  0.500-  56 1.96  66 1.96  25 1.98
 212  0.402  0.125  0.500-  56 1.96  66 1.96  65 1.98
 213  0.500  0.251  0.566-  67 1.90  77 1.91  66 2.00
 214  0.500  0.249  0.649-  70 1.81  67 2.01  77 2.02
 215  0.350  0.125  0.607-  68 1.93  58 1.93  67 2.04
 216  0.650  0.125  0.607-  67 1.88  18 2.02  28 2.02
 217  0.249  0.250  0.672-  68 1.87  79 2.10  69 2.10
 218  0.250  0.250  0.756-  79 1.84  69 1.84
 219  0.593  0.125  0.719-  60 1.95  70 1.96  29 2.03
 220  0.406  0.125  0.719-  60 1.95  70 1.95  69 2.03
 221  0.250  0.500  0.245-  41 1.96  71 1.96
 222  0.250  0.500  0.329-  41 1.96  71 1.96  74 1.98
 223  0.598  0.375  0.287-  62 1.96  72 1.96  31 1.98
 224  0.402  0.375  0.287-  62 1.96  72 1.96  71 1.98
 225  0.500  0.500  0.352-  43 1.96  73 1.96  72 1.98
 226  0.500  0.500  0.435-  43 1.96  73 1.96  76 1.98
 227  0.348  0.375  0.393-  64 1.96  74 1.96  73 1.98
 228  0.652  0.375  0.393-  24 1.96  34 1.96  73 1.98
 229  0.250  0.500  0.458-  45 1.96  75 1.96  74 1.98
 230  0.250  0.500  0.542-  45 1.96  75 1.96  78 2.11
 231  0.598  0.375  0.500-  66 1.96  76 1.96  35 1.98
 232  0.402  0.375  0.500-  66 1.96  76 1.96  75 1.98
 233  0.500  0.500  0.566-  47 1.90  77 1.90  76 2.01
 234  0.501  0.500  0.650-  80 1.84  47 2.02  77 2.02
 235  0.350  0.375  0.607-  78 1.94  68 1.94  77 2.04
 236  0.650  0.375  0.607-  77 1.88  38 2.02  28 2.02
 237  0.248  0.500  0.672-  78 1.87  49 2.10  79 2.10
 238  0.252  0.500  0.755-  49 1.84  79 1.84
 239  0.594  0.374  0.719-  70 1.94  80 1.96  39 2.03
 240  0.405  0.373  0.718-  70 1.94  80 1.96  79 2.04


IMPORTANT INFORMATION: All symmetrisations will be switched off!
NOSYMM: (Re-)initialisation of all symmetry stuff for point group C_1.


----------------------------------------------------------------------------------------

                                     Primitive cell                                     

  volume of cell :    4740.1649

  direct lattice vectors                    reciprocal lattice vectors
    13.042933829  0.000000000  0.000000000     0.076669867  0.000000000  0.000000000
     0.000000000 11.878216733  0.000000000     0.000000000  0.084187721  0.000000000
     0.000000000  0.000000000 30.596159140     0.000000000  0.000000000  0.032683841

  length of vectors
    13.042933829 11.878216733 30.596159140     0.076669867  0.084187721  0.032683841

  position of ions in fractional coordinates (direct lattice)
     0.750000000  0.625000000  0.286853412
     0.000000000  0.750000000  0.286853412
     0.000000000  0.625000000  0.393426706
     0.750000000  0.750000000  0.393426706
     0.750000000  0.625000000  0.500000000
     0.000000000  0.750000000  0.500000000
     0.006217938  0.625002366  0.604363989
     0.755082827  0.749985455  0.610673294
     0.749323856  0.625079392  0.720315051
     0.999539375  0.750176496  0.708473973
     0.750000000  0.875000000  0.286853412
     0.000000000  0.000000000  0.286853412
     0.000000000  0.875000000  0.393426706
     0.750000000  0.000000000  0.393426706
     0.750000000  0.875000000  0.500000000
     0.000000000  0.000000000  0.500000000
     0.006181753  0.875010113  0.604373113
     0.755061073  0.999999943  0.610704621
     0.749300506  0.875050804  0.720388640
     0.999737458  0.000000026  0.708479079
     0.750000000  0.125000000  0.286853412
     0.000000000  0.250000000  0.286853412
     0.000000000  0.125000000  0.393426706
     0.750000000  0.250000000  0.393426706
     0.750000000  0.125000000  0.500000000
     0.000000000  0.250000000  0.500000000
     0.006181778  0.124989861  0.604373091
     0.755082751  0.250014356  0.610673284
     0.749300462  0.124949163  0.720388635
     0.999539308  0.249823447  0.708473967
     0.750000000  0.375000000  0.286853412
     0.000000000  0.500000000  0.286853412
     0.000000000  0.375000000  0.393426706
     0.750000000  0.500000000  0.393426706
     0.750000000  0.375000000  0.500000000
     0.000000000  0.500000000  0.500000000
     0.006217859  0.374997667  0.604363996
     0.755028127  0.499999888  0.610713194
     0.749323784  0.374920465  0.720315054
     0.999136029  0.500000016  0.708466459
     0.250000000  0.625000000  0.286853412
     0.500000000  0.750000000  0.286853412
     0.500000000  0.625000000  0.393426706
     0.250000000  0.750000000  0.393426706
     0.250000000  0.625000000  0.500000000
     0.500000000  0.750000000  0.500000000
     0.506272279  0.624304904  0.604896379
     0.254957808  0.750080455  0.610561033
     0.248854389  0.625301301  0.719949818
     0.499685764  0.750124398  0.708004364
     0.250000000  0.875000000  0.286853412
     0.500000000  0.000000000  0.286853412
     0.500000000  0.875000000  0.393426706
     0.250000000  0.000000000  0.393426706
     0.250000000  0.875000000  0.500000000
     0.500000000  0.000000000  0.500000000
     0.506418866  0.874694326  0.603993303
     0.255088757  0.999999977  0.610683759
     0.249768883  0.875089210  0.720391157
     0.499608767  0.999999993  0.708092967
     0.250000000  0.125000000  0.286853412
     0.500000000  0.250000000  0.286853412
     0.500000000  0.125000000  0.393426706
     0.250000000  0.250000000  0.393426706
     0.250000000  0.125000000  0.500000000
     0.500000000  0.250000000  0.500000000
     0.506418812  0.125305660  0.603993306
     0.254957715  0.249919522  0.610561109
     0.249768829  0.124910678  0.720391133
     0.499685707  0.249875547  0.708004378
     0.250000000  0.375000000  0.286853412
     0.500000000  0.500000000  0.286853412
     0.500000000  0.375000000  0.393426706
     0.250000000  0.500000000  0.393426706
     0.250000000  0.375000000  0.500000000
     0.500000000  0.500000000  0.500000000
     0.506272372  0.375695135  0.604896395
     0.254932721  0.499999956  0.610576170
     0.248854291  0.374698766  0.719949880
     0.499120986  0.500000036  0.710043007
     0.750000000  0.750000000  0.245128807
     0.750000000  0.750000000  0.328578017
     0.097877722  0.625000000  0.286853412
     0.902122278  0.625000000  0.286853412
     0.000000000  0.750000000  0.351702101
     0.000000000  0.750000000  0.435151311
     0.847877722  0.625000000  0.393426706
     0.152122278  0.625000000  0.393426706
     0.750000000  0.750000000  0.458275395
     0.750000000  0.750000000  0.541724605
     0.097877722  0.625000000  0.500000000
     0.902122278  0.625000000  0.500000000
     0.000067443  0.750042273  0.565526395
     0.000415640  0.749992246  0.649216698
     0.850054458  0.625034299  0.607310578
     0.150172886  0.625083798  0.606878848
     0.750068943  0.750222049  0.671618983
     0.749446213  0.749959532  0.755645921
     0.093267210  0.624824915  0.719539274
     0.905722913  0.625050536  0.719108586
     0.750000000  0.000000000  0.245128807
     0.750000000  0.000000000  0.328578017
     0.097877722  0.875000000  0.286853412
     0.902122278  0.875000000  0.286853412
     0.000000000  0.000000000  0.351702101
     0.000000000  0.000000000  0.435151311
     0.847877722  0.875000000  0.393426706
     0.152122278  0.875000000  0.393426706
     0.750000000  0.000000000  0.458275395
     0.750000000  0.000000000  0.541724605
     0.097877722  0.875000000  0.500000000
     0.902122278  0.875000000  0.500000000
     0.000065937  0.999999979  0.565529585
     0.000410444  0.000000018  0.649217939
     0.850092288  0.875030564  0.607320667
     0.150222389  0.875128978  0.606966365
     0.749864600  0.000000021  0.671641673
     0.749817712  0.000000001  0.755676643
     0.093420737  0.874946811  0.719408267
     0.905849949  0.874981034  0.719071083
     0.750000000  0.250000000  0.245128807
     0.750000000  0.250000000  0.328578017
     0.097877722  0.125000000  0.286853412
     0.902122278  0.125000000  0.286853412
     0.000000000  0.250000000  0.351702101
     0.000000000  0.250000000  0.435151311
     0.847877722  0.125000000  0.393426706
     0.152122278  0.125000000  0.393426706
     0.750000000  0.250000000  0.458275395
     0.750000000  0.250000000  0.541724605
     0.097877722  0.125000000  0.500000000
     0.902122278  0.125000000  0.500000000
     0.000067406  0.249957728  0.565526387
     0.000415594  0.250007708  0.649216691
     0.850092245  0.124969383  0.607320651
     0.150222395  0.124870999  0.606966354
     0.750068886  0.249777915  0.671618971
     0.749446222  0.250040417  0.755645951
     0.093420746  0.125053184  0.719408277
     0.905849920  0.125018952  0.719071080
     0.750000000  0.500000000  0.245128807
     0.750000000  0.500000000  0.328578017
     0.097877722  0.375000000  0.286853412
     0.902122278  0.375000000  0.286853412
     0.000000000  0.500000000  0.351702101
     0.000000000  0.500000000  0.435151311
     0.847877722  0.375000000  0.393426706
     0.152122278  0.375000000  0.393426706
     0.750000000  0.500000000  0.458275395
     0.750000000  0.500000000  0.541724605
     0.097877722  0.375000000  0.500000000
     0.902122278  0.375000000  0.500000000
     0.000061141  0.499999999  0.565524675
     0.000331126  0.500000002  0.649208975
     0.850054448  0.374965653  0.607310588
     0.150172872  0.374916211  0.606878862
     0.750230170  0.500000022  0.671646306
     0.749117031  0.499999987  0.755563553
     0.093267168  0.375175090  0.719539272
     0.905722956  0.374949463  0.719108577
     0.250000000  0.750000000  0.245128807
     0.250000000  0.750000000  0.328578017
     0.597877722  0.625000000  0.286853412
     0.402122278  0.625000000  0.286853412
     0.500000000  0.750000000  0.351702101
     0.500000000  0.750000000  0.435151311
     0.347877722  0.625000000  0.393426706
     0.652122278  0.625000000  0.393426706
     0.250000000  0.750000000  0.458275395
     0.250000000  0.750000000  0.541724605
     0.597877722  0.625000000  0.500000000
     0.402122278  0.625000000  0.500000000
     0.500121946  0.749332806  0.565503271
     0.500438343  0.750715626  0.648829553
     0.349828896  0.625003519  0.607493179
     0.650413881  0.624980895  0.607145391
     0.248843693  0.750264399  0.671584884
     0.250266140  0.749606466  0.755595171
     0.593553275  0.626037833  0.718546951
     0.404937416  0.626587752  0.717631473
     0.250000000  0.000000000  0.245128807
     0.250000000  0.000000000  0.328578017
     0.597877722  0.875000000  0.286853412
     0.402122278  0.875000000  0.286853412
     0.500000000  0.000000000  0.351702101
     0.500000000  0.000000000  0.435151311
     0.347877722  0.875000000  0.393426706
     0.652122278  0.875000000  0.393426706
     0.250000000  0.000000000  0.458275395
     0.250000000  0.000000000  0.541724605
     0.597877722  0.875000000  0.500000000
     0.402122278  0.875000000  0.500000000
     0.500014941  0.999999952  0.565314821
     0.500259968  0.999999990  0.648886140
     0.349853457  0.874979525  0.607265024
     0.650425577  0.875065574  0.606900010
     0.249709026  0.999999999  0.671716800
     0.249669177  0.999999971  0.755699438
     0.593451897  0.875359418  0.719132186
     0.405721320  0.875160870  0.718936473
     0.250000000  0.250000000  0.245128807
     0.250000000  0.250000000  0.328578017
     0.597877722  0.125000000  0.286853412
     0.402122278  0.125000000  0.286853412
     0.500000000  0.250000000  0.351702101
     0.500000000  0.250000000  0.435151311
     0.347877722  0.125000000  0.393426706
     0.652122278  0.125000000  0.393426706
     0.250000000  0.250000000  0.458275395
     0.250000000  0.250000000  0.541724605
     0.597877722  0.125000000  0.500000000
     0.402122278  0.125000000  0.500000000
     0.500121896  0.250667212  0.565503251
     0.500438362  0.249284380  0.648829527
     0.349853435  0.125020462  0.607265027
     0.650425599  0.124934373  0.606899999
     0.248843709  0.249735523  0.671584863
     0.250266197  0.250393419  0.755595217
     0.593451927  0.124640535  0.719132187
     0.405721286  0.124839101  0.718936472
     0.250000000  0.500000000  0.245128807
     0.250000000  0.500000000  0.328578017
     0.597877722  0.375000000  0.286853412
     0.402122278  0.375000000  0.286853412
     0.500000000  0.500000000  0.351702101
     0.500000000  0.500000000  0.435151311
     0.347877722  0.375000000  0.393426706
     0.652122278  0.375000000  0.393426706
     0.250000000  0.500000000  0.458275395
     0.250000000  0.500000000  0.541724605
     0.597877722  0.375000000  0.500000000
     0.402122278  0.375000000  0.500000000
     0.500072503  0.500000035  0.565722966
     0.500505850  0.500000045  0.649903738
     0.349828846  0.374996472  0.607493220
     0.650413935  0.375019148  0.607145419
     0.248309295  0.500000021  0.671501729
     0.252094576  0.500000093  0.755464981
     0.593553234  0.373962166  0.718546935
     0.404937441  0.373412230  0.717631447

  ion indices of the primitive-cell ions
   primitive index   ion index
                 1           1
                 2           2
                 3           3
                 4           4
                 5           5
                 6           6
                 7           7
                 8           8
                 9           9
                10          10
                11          11
                12          12
                13          13
                14          14
                15          15
                16          16
                17          17
                18          18
                19          19
                20          20
                21          21
                22          22
                23          23
                24          24
                25          25
                26          26
                27          27
                28          28
                29          29
                30          30
                31          31
                32          32
                33          33
                34          34
                35          35
                36          36
                37          37
                38          38
                39          39
                40          40
                41          41
                42          42
                43          43
                44          44
                45          45
                46          46
                47          47
                48          48
                49          49
                50          50
                51          51
                52          52
                53          53
                54          54
                55          55
                56          56
                57          57
                58          58
                59          59
                60          60
                61          61
                62          62
                63          63
                64          64
                65          65
                66          66
                67          67
                68          68
                69          69
                70          70
                71          71
                72          72
                73          73
                74          74
                75          75
                76          76
                77          77
                78          78
                79          79
                80          80
                81          81
                82          82
                83          83
                84          84
                85          85
                86          86
                87          87
                88          88
                89          89
                90          90
                91          91
                92          92
                93          93
                94          94
                95          95
                96          96
                97          97
                98          98
                99          99
               100         100
               101         101
               102         102
               103         103
               104         104
               105         105
               106         106
               107         107
               108         108
               109         109
               110         110
               111         111
               112         112
               113         113
               114         114
               115         115
               116         116
               117         117
               118         118
               119         119
               120         120
               121         121
               122         122
               123         123
               124         124
               125         125
               126         126
               127         127
               128         128
               129         129
               130         130
               131         131
               132         132
               133         133
               134         134
               135         135
               136         136
               137         137
               138         138
               139         139
               140         140
               141         141
               142         142
               143         143
               144         144
               145         145
               146         146
               147         147
               148         148
               149         149
               150         150
               151         151
               152         152
               153         153
               154         154
               155         155
               156         156
               157         157
               158         158
               159         159
               160         160
               161         161
               162         162
               163         163
               164         164
               165         165
               166         166
               167         167
               168         168
               169         169
               170         170
               171         171
               172         172
               173         173
               174         174
               175         175
               176         176
               177         177
               178         178
               179         179
               180         180
               181         181
               182         182
               183         183
               184         184
               185         185
               186         186
               187         187
               188         188
               189         189
               190         190
               191         191
               192         192
               193         193
               194         194
               195         195
               196         196
               197         197
               198         198
               199         199
               200         200
               201         201
               202         202
               203         203
               204         204
               205         205
               206         206
               207         207
               208         208
               209         209
               210         210
               211         211
               212         212
               213         213
               214         214
               215         215
               216         216
               217         217
               218         218
               219         219
               220         220
               221         221
               222         222
               223         223
               224         224
               225         225
               226         226
               227         227
               228         228
               229         229
               230         230
               231         231
               232         232
               233         233
               234         234
               235         235
               236         236
               237         237
               238         238
               239         239
               240         240

----------------------------------------------------------------------------------------



 KPOINTS: pymatgen v2020.8.13 with grid density = 

Automatic generation of k-mesh.
 Grid dimensions read from file:
 generate k-points for:    2    2    1

 Generating k-lattice:

  Cartesian coordinates                     Fractional coordinates (reciprocal lattice)
     0.038334933  0.000000000  0.000000000     0.500000000  0.000000000  0.000000000
     0.000000000  0.042093861  0.000000000     0.000000000  0.500000000  0.000000000
     0.000000000  0.000000000  0.032683841     0.000000000  0.000000000  1.000000000

  Length of vectors
     0.038334933  0.042093861  0.032683841

  Shift w.r.t. Gamma in fractional coordinates (k-lattice)
     0.000000000  0.000000000  0.000000000

 
 Subroutine IBZKPT returns following result:
 ===========================================
 
 Found      4 irreducible k-points:
 
 Following reciprocal coordinates:
            Coordinates               Weight
  0.000000  0.000000  0.000000      1.000000
  0.500000  0.000000  0.000000      1.000000
  0.000000  0.500000  0.000000      1.000000
  0.500000  0.500000  0.000000      1.000000
 
 Following cartesian coordinates:
            Coordinates               Weight
  0.000000  0.000000  0.000000      1.000000
  0.038335  0.000000  0.000000      1.000000
  0.000000  0.042094  0.000000      1.000000
  0.038335  0.042094  0.000000      1.000000
 


--------------------------------------------------------------------------------------------------------




 Dimension of arrays:
   k-points           NKPTS =      4   k-points in BZ     NKDIM =      4   number of bands    NBANDS=   1056
   number of dos      NEDOS =    301   number of ions     NIONS =    240
   non local maximal  LDIM  =      6   non local SUM 2l+1 LMDIM =     18
   total plane-waves  NPLWV = ******
   max r-space proj   IRMAX =      1   max aug-charges    IRDMAX=  21427
   dimension x,y,z NGX =   108 NGY =   96 NGZ =  250
   dimension x,y,z NGXF=   216 NGYF=  192 NGZF=  500
   support grid    NGXF=   216 NGYF=  192 NGZF=  500
   ions per type =              80 160
   NGX,Y,Z   is equivalent  to a cutoff of  13.77, 13.44, 13.58 a.u.
   NGXF,Y,Z  is equivalent  to a cutoff of  27.53, 26.87, 27.17 a.u.

 SYSTEM =  TiO2                                    
 POSCAR =  Ti  O                                   

--------------------------------------------------------------------------------------------------------


  energy-cutoff  :      600.00
  volume of cell :     4740.16
      direct lattice vectors                 reciprocal lattice vectors
    13.042933829  0.000000000  0.000000000     0.076669867  0.000000000  0.000000000
     0.000000000 11.878216733  0.000000000     0.000000000  0.084187721  0.000000000
     0.000000000  0.000000000 30.596159140     0.000000000  0.000000000  0.032683841

  length of vectors
    13.042933829 11.878216733 30.596159140     0.076669867  0.084187721  0.032683841



 k-points in units of 2pi/SCALE and weight: pymatgen v2020.8.13 with grid density = 
   0.00000000  0.00000000  0.00000000       0.250
   0.03833493  0.00000000  0.00000000       0.250
   0.00000000  0.04209386  0.00000000       0.250
   0.03833493  0.04209386  0.00000000       0.250

 k-points in reciprocal lattice and weights: pymatgen v2020.8.13 with grid density = 
   0.00000000  0.00000000  0.00000000       0.250
   0.50000000  0.00000000  0.00000000       0.250
   0.00000000  0.50000000  0.00000000       0.250
   0.50000000  0.50000000  0.00000000       0.250

 position of ions in fractional coordinates (direct lattice) 
   0.75000000  0.62500000  0.28685341
   0.00000000  0.75000000  0.28685341
   0.00000000  0.62500000  0.39342671
   0.75000000  0.75000000  0.39342671
   0.75000000  0.62500000  0.50000000
   0.00000000  0.75000000  0.50000000
   0.00621794  0.62500237  0.60436399
   0.75508283  0.74998546  0.61067329
   0.74932386  0.62507939  0.72031505
   0.99953938  0.75017650  0.70847397
   0.75000000  0.87500000  0.28685341
   0.00000000  0.00000000  0.28685341
   0.00000000  0.87500000  0.39342671
   0.75000000  0.00000000  0.39342671
   0.75000000  0.87500000  0.50000000
   0.00000000  0.00000000  0.50000000
   0.00618175  0.87501011  0.60437311
   0.75506107  0.99999994  0.61070462
   0.74930051  0.87505080  0.72038864
   0.99973746  0.00000003  0.70847908
   0.75000000  0.12500000  0.28685341
   0.00000000  0.25000000  0.28685341
   0.00000000  0.12500000  0.39342671
   0.75000000  0.25000000  0.39342671
   0.75000000  0.12500000  0.50000000
   0.00000000  0.25000000  0.50000000
   0.00618178  0.12498986  0.60437309
   0.75508275  0.25001436  0.61067328
   0.74930046  0.12494916  0.72038864
   0.99953931  0.24982345  0.70847397
   0.75000000  0.37500000  0.28685341
   0.00000000  0.50000000  0.28685341
   0.00000000  0.37500000  0.39342671
   0.75000000  0.50000000  0.39342671
   0.75000000  0.37500000  0.50000000
   0.00000000  0.50000000  0.50000000
   0.00621786  0.37499767  0.60436400
   0.75502813  0.49999989  0.61071319
   0.74932378  0.37492046  0.72031505
   0.99913603  0.50000002  0.70846646
   0.25000000  0.62500000  0.28685341
   0.50000000  0.75000000  0.28685341
   0.50000000  0.62500000  0.39342671
   0.25000000  0.75000000  0.39342671
   0.25000000  0.62500000  0.50000000
   0.50000000  0.75000000  0.50000000
   0.50627228  0.62430490  0.60489638
   0.25495781  0.75008046  0.61056103
   0.24885439  0.62530130  0.71994982
   0.49968576  0.75012440  0.70800436
   0.25000000  0.87500000  0.28685341
   0.50000000  0.00000000  0.28685341
   0.50000000  0.87500000  0.39342671
   0.25000000  0.00000000  0.39342671
   0.25000000  0.87500000  0.50000000
   0.50000000  0.00000000  0.50000000
   0.50641887  0.87469433  0.60399330
   0.25508876  0.99999998  0.61068376
   0.24976888  0.87508921  0.72039116
   0.49960877  0.99999999  0.70809297
   0.25000000  0.12500000  0.28685341
   0.50000000  0.25000000  0.28685341
   0.50000000  0.12500000  0.39342671
   0.25000000  0.25000000  0.39342671
   0.25000000  0.12500000  0.50000000
   0.50000000  0.25000000  0.50000000
   0.50641881  0.12530566  0.60399331
   0.25495772  0.24991952  0.61056111
   0.24976883  0.12491068  0.72039113
   0.49968571  0.24987555  0.70800438
   0.25000000  0.37500000  0.28685341
   0.50000000  0.50000000  0.28685341
   0.50000000  0.37500000  0.39342671
   0.25000000  0.50000000  0.39342671
   0.25000000  0.37500000  0.50000000
   0.50000000  0.50000000  0.50000000
   0.50627237  0.37569513  0.60489639
   0.25493272  0.49999996  0.61057617
   0.24885429  0.37469877  0.71994988
   0.49912099  0.50000004  0.71004301
   0.75000000  0.75000000  0.24512881
   0.75000000  0.75000000  0.32857802
   0.09787772  0.62500000  0.28685341
   0.90212228  0.62500000  0.28685341
   0.00000000  0.75000000  0.35170210
   0.00000000  0.75000000  0.43515131
   0.84787772  0.62500000  0.39342671
   0.15212228  0.62500000  0.39342671
   0.75000000  0.75000000  0.45827539
   0.75000000  0.75000000  0.54172461
   0.09787772  0.62500000  0.50000000
   0.90212228  0.62500000  0.50000000
   0.00006744  0.75004227  0.56552640
   0.00041564  0.74999225  0.64921670
   0.85005446  0.62503430  0.60731058
   0.15017289  0.62508380  0.60687885
   0.75006894  0.75022205  0.67161898
   0.74944621  0.74995953  0.75564592
   0.09326721  0.62482491  0.71953927
   0.90572291  0.62505054  0.71910859
   0.75000000  0.00000000  0.24512881
   0.75000000  0.00000000  0.32857802
   0.09787772  0.87500000  0.28685341
   0.90212228  0.87500000  0.28685341
   0.00000000  0.00000000  0.35170210
   0.00000000  0.00000000  0.43515131
   0.84787772  0.87500000  0.39342671
   0.15212228  0.87500000  0.39342671
   0.75000000  0.00000000  0.45827539
   0.75000000  0.00000000  0.54172461
   0.09787772  0.87500000  0.50000000
   0.90212228  0.87500000  0.50000000
   0.00006594  0.99999998  0.56552958
   0.00041044  0.00000002  0.64921794
   0.85009229  0.87503056  0.60732067
   0.15022239  0.87512898  0.60696637
   0.74986460  0.00000002  0.67164167
   0.74981771  0.00000000  0.75567664
   0.09342074  0.87494681  0.71940827
   0.90584995  0.87498103  0.71907108
   0.75000000  0.25000000  0.24512881
   0.75000000  0.25000000  0.32857802
   0.09787772  0.12500000  0.28685341
   0.90212228  0.12500000  0.28685341
   0.00000000  0.25000000  0.35170210
   0.00000000  0.25000000  0.43515131
   0.84787772  0.12500000  0.39342671
   0.15212228  0.12500000  0.39342671
   0.75000000  0.25000000  0.45827539
   0.75000000  0.25000000  0.54172461
   0.09787772  0.12500000  0.50000000
   0.90212228  0.12500000  0.50000000
   0.00006741  0.24995773  0.56552639
   0.00041559  0.25000771  0.64921669
   0.85009224  0.12496938  0.60732065
   0.15022239  0.12487100  0.60696635
   0.75006889  0.24977791  0.67161897
   0.74944622  0.25004042  0.75564595
   0.09342075  0.12505318  0.71940828
   0.90584992  0.12501895  0.71907108
   0.75000000  0.50000000  0.24512881
   0.75000000  0.50000000  0.32857802
   0.09787772  0.37500000  0.28685341
   0.90212228  0.37500000  0.28685341
   0.00000000  0.50000000  0.35170210
   0.00000000  0.50000000  0.43515131
   0.84787772  0.37500000  0.39342671
   0.15212228  0.37500000  0.39342671
   0.75000000  0.50000000  0.45827539
   0.75000000  0.50000000  0.54172461
   0.09787772  0.37500000  0.50000000
   0.90212228  0.37500000  0.50000000
   0.00006114  0.50000000  0.56552467
   0.00033113  0.50000000  0.64920897
   0.85005445  0.37496565  0.60731059
   0.15017287  0.37491621  0.60687886
   0.75023017  0.50000002  0.67164631
   0.74911703  0.49999999  0.75556355
   0.09326717  0.37517509  0.71953927
   0.90572296  0.37494946  0.71910858
   0.25000000  0.75000000  0.24512881
   0.25000000  0.75000000  0.32857802
   0.59787772  0.62500000  0.28685341
   0.40212228  0.62500000  0.28685341
   0.50000000  0.75000000  0.35170210
   0.50000000  0.75000000  0.43515131
   0.34787772  0.62500000  0.39342671
   0.65212228  0.62500000  0.39342671
   0.25000000  0.75000000  0.45827539
   0.25000000  0.75000000  0.54172461
   0.59787772  0.62500000  0.50000000
   0.40212228  0.62500000  0.50000000
   0.50012195  0.74933281  0.56550327
   0.50043834  0.75071563  0.64882955
   0.34982890  0.62500352  0.60749318
   0.65041388  0.62498090  0.60714539
   0.24884369  0.75026440  0.67158488
   0.25026614  0.74960647  0.75559517
   0.59355328  0.62603783  0.71854695
   0.40493742  0.62658775  0.71763147
   0.25000000  0.00000000  0.24512881
   0.25000000  0.00000000  0.32857802
   0.59787772  0.87500000  0.28685341
   0.40212228  0.87500000  0.28685341
   0.50000000  0.00000000  0.35170210
   0.50000000  0.00000000  0.43515131
   0.34787772  0.87500000  0.39342671
   0.65212228  0.87500000  0.39342671
   0.25000000  0.00000000  0.45827539
   0.25000000  0.00000000  0.54172461
   0.59787772  0.87500000  0.50000000
   0.40212228  0.87500000  0.50000000
   0.50001494  0.99999995  0.56531482
   0.50025997  0.99999999  0.64888614
   0.34985346  0.87497953  0.60726502
   0.65042558  0.87506557  0.60690001
   0.24970903  1.00000000  0.67171680
   0.24966918  0.99999997  0.75569944
   0.59345190  0.87535942  0.71913219
   0.40572132  0.87516087  0.71893647
   0.25000000  0.25000000  0.24512881
   0.25000000  0.25000000  0.32857802
   0.59787772  0.12500000  0.28685341
   0.40212228  0.12500000  0.28685341
   0.50000000  0.25000000  0.35170210
   0.50000000  0.25000000  0.43515131
   0.34787772  0.12500000  0.39342671
   0.65212228  0.12500000  0.39342671
   0.25000000  0.25000000  0.45827539
   0.25000000  0.25000000  0.54172461
   0.59787772  0.12500000  0.50000000
   0.40212228  0.12500000  0.50000000
   0.50012190  0.25066721  0.56550325
   0.50043836  0.24928438  0.64882953
   0.34985343  0.12502046  0.60726503
   0.65042560  0.12493437  0.60690000
   0.24884371  0.24973552  0.67158486
   0.25026620  0.25039342  0.75559522
   0.59345193  0.12464053  0.71913219
   0.40572129  0.12483910  0.71893647
   0.25000000  0.50000000  0.24512881
   0.25000000  0.50000000  0.32857802
   0.59787772  0.37500000  0.28685341
   0.40212228  0.37500000  0.28685341
   0.50000000  0.50000000  0.35170210
   0.50000000  0.50000000  0.43515131
   0.34787772  0.37500000  0.39342671
   0.65212228  0.37500000  0.39342671
   0.25000000  0.50000000  0.45827539
   0.25000000  0.50000000  0.54172461
   0.59787772  0.37500000  0.50000000
   0.40212228  0.37500000  0.50000000
   0.50007250  0.50000004  0.56572297
   0.50050585  0.50000005  0.64990374
   0.34982885  0.37499647  0.60749322
   0.65041393  0.37501915  0.60714542
   0.24830929  0.50000002  0.67150173
   0.25209458  0.50000009  0.75546498
   0.59355323  0.37396217  0.71854694
   0.40493744  0.37341223  0.71763145

 position of ions in cartesian coordinates  (Angst):
   9.78220037  7.42388546  8.77661266
   0.00000000  8.90866255  8.77661266
   0.00000000  7.42388546 12.03734611
   9.78220037  8.90866255 12.03734611
   9.78220037  7.42388546 15.29807957
   0.00000000  8.90866255 15.29807957
   0.08110015  7.42391356 18.49121677
   9.84849535  8.90848978 18.68425730
   9.77338147  7.42482850 22.03887394
  13.03692593  8.91075901 21.67658242
   9.78220037 10.39343964  8.77661266
   0.00000000  0.00000000  8.77661266
   0.00000000 10.39343964 12.03734611
   9.78220037  0.00000000 12.03734611
   9.78220037 10.39343964 15.29807957
   0.00000000  0.00000000 15.29807957
   0.08062819 10.39355976 18.49149595
   9.84821161 11.87821606 18.68521577
   9.77307692 10.39404310 22.04112549
  13.03950952  0.00000031 21.67673865
   9.78220037  1.48477709  8.77661266
   0.00000000  2.96955418  8.77661266
   0.00000000  1.48477709 12.03734611
   9.78220037  2.96955418 12.03734611
   9.78220037  1.48477709 15.29807957
   0.00000000  2.96955418 15.29807957
   0.08062852  1.48465666 18.49149528
   9.84849436  2.96972471 18.68425697
   9.77307635  1.48417324 22.04112533
  13.03692506  2.96745705 21.67658226
   9.78220037  4.45433128  8.77661266
   0.00000000  5.93910837  8.77661266
   0.00000000  4.45433128 12.03734611
   9.78220037  5.93910837 12.03734611
   9.78220037  4.45433128 15.29807957
   0.00000000  5.93910837 15.29807957
   0.08109913  4.45430356 18.49121699
   9.84778190  5.93910703 18.68547807
   9.77338053  4.45338654 22.03887404
  13.03166511  5.93910856 21.67635253
   3.26073346  7.42388546  8.77661266
   6.52146691  8.90866255  8.77661266
   6.52146691  7.42388546 12.03734611
   3.26073346  8.90866255 12.03734611
   3.26073346  7.42388546 15.29807957
   6.52146691  8.90866255 15.29807957
   6.60327583  7.41562896 18.50750587
   3.32539782  8.90961821 18.68082252
   3.24579133  7.42746437 22.02769919
   6.51736836  8.91014017 21.66221420
   3.26073346 10.39343964  8.77661266
   6.52146691  0.00000000  8.77661266
   6.52146691 10.39343964 12.03734611
   3.26073346  0.00000000 12.03734611
   3.26073346 10.39343964 15.29807957
   6.52146691  0.00000000 15.29807957
   6.60518776 10.38980878 18.47987523
   3.32710577 11.87821646 18.68457748
   3.25771902 10.39449930 22.04120247
   6.51636409 11.87821666 21.66492510
   3.26073346  1.48477709  8.77661266
   6.52146691  2.96955418  8.77661266
   6.52146691  1.48477709 12.03734611
   3.26073346  2.96955418 12.03734611
   3.26073346  1.48477709 15.29807957
   6.52146691  2.96955418 15.29807957
   6.60518705  1.48840779 18.47987529
   3.32539661  2.96859825 18.68082486
   3.25771831  1.48371611 22.04120176
   6.51736761  2.96807591 21.66221462
   3.26073346  4.45433128  8.77661266
   6.52146691  5.93910837  8.77661266
   6.52146691  4.45433128 12.03734611
   3.26073346  5.93910837 12.03734611
   3.26073346  4.45433128 15.29807957
   6.52146691  5.93910837 15.29807957
   6.60327704  4.46258823 18.50750636
   3.32507062  5.93910784 18.68128566
   3.24579005  4.45075315 22.02770110
   6.51000200  5.93910879 21.72458884
   9.78220037  8.90866255  7.50000000
   9.78220037  8.90866255 10.05322531
   1.27661266  7.42388546  8.77661266
  11.76632117  7.42388546  8.77661266
   0.00000000  8.90866255 10.76073346
   0.00000000  8.90866255 13.31395877
  11.05881303  7.42388546 12.03734611
   1.98412080  7.42388546 12.03734611
   9.78220037  8.90866255 14.02146691
   9.78220037  8.90866255 16.57469223
   1.27661266  7.42388546 15.29807957
  11.76632117  7.42388546 15.29807957
   0.00087965  8.90916468 17.30293559
   0.00542117  8.90857045 19.86353741
  11.08720404  7.42429287 18.58137109
   1.95869501  7.42488083 18.56816181
   9.78309959  8.91130010 20.54896128
   9.77497736  8.90818186 23.11986284
   1.21647805  7.42180576 22.01513814
  11.81328402  7.42448574 22.00196074
   9.78220037  0.00000000  7.50000000
   9.78220037  0.00000000 10.05322531
   1.27661266 10.39343964  8.77661266
  11.76632117 10.39343964  8.77661266
   0.00000000  0.00000000 10.76073346
   0.00000000  0.00000000 13.31395877
  11.05881303 10.39343964 12.03734611
   1.98412080 10.39343964 12.03734611
   9.78220037  0.00000000 14.02146691
   9.78220037  0.00000000 16.57469223
   1.27661266 10.39343964 15.29807957
  11.76632117 10.39343964 15.29807957
   0.00086001 11.87821648 17.30303317
   0.00535339  0.00000021 19.86357539
  11.08769746 10.39380269 18.58167979
   1.95934069 10.39497167 18.57083950
   9.78043436  0.00000025 20.54965550
   9.77982280  0.00000002 23.12080283
   1.21848050 10.39280785 22.01112983
  11.81494095 10.39321436 22.00081329
   9.78220037  2.96955418  7.50000000
   9.78220037  2.96955418 10.05322531
   1.27661266  1.48477709  8.77661266
  11.76632117  1.48477709  8.77661266
   0.00000000  2.96955418 10.76073346
   0.00000000  2.96955418 13.31395877
  11.05881303  1.48477709 12.03734611
   1.98412080  1.48477709 12.03734611
   9.78220037  2.96955418 14.02146691
   9.78220037  2.96955418 16.57469223
   1.27661266  1.48477709 15.29807957
  11.76632117  1.48477709 15.29807957
   0.00087917  2.96905206 17.30293534
   0.00542056  2.96964574 19.86353720
  11.08769689  1.48441342 18.58167929
   1.95934076  1.48324479 18.57083916
   9.78309885  2.96691621 20.54896092
   9.77497748  2.97003427 23.11986377
   1.21848061  1.48540882 22.01113013
  11.81494057  1.48500221 22.00081320
   9.78220037  5.93910837  7.50000000
   9.78220037  5.93910837 10.05322531
   1.27661266  4.45433128  8.77661266
  11.76632117  4.45433128  8.77661266
   0.00000000  5.93910837 10.76073346
   0.00000000  5.93910837 13.31395877
  11.05881303  4.45433128 12.03734611
   1.98412080  4.45433128 12.03734611
   9.78220037  5.93910837 14.02146691
   9.78220037  5.93910837 16.57469223
   1.27661266  4.45433128 15.29807957
  11.76632117  4.45433128 15.29807957
   0.00079746  5.93910835 17.30288294
   0.00431885  5.93910839 19.86330110
  11.08720392  4.45392330 18.58137141
   1.95869483  4.45333601 18.56816225
   9.78520246  5.93910862 20.54979726
   9.77068386  5.93910821 23.11734272
   1.21647750  4.45641103 22.01513808
  11.81328458  4.45373099 22.00196046
   3.26073346  8.90866255  7.50000000
   3.26073346  8.90866255 10.05322531
   7.79807957  7.42388546  8.77661266
   5.24485426  7.42388546  8.77661266
   6.52146691  8.90866255 10.76073346
   6.52146691  8.90866255 13.31395877
   4.53734611  7.42388546 12.03734611
   8.50558772  7.42388546 12.03734611
   3.26073346  8.90866255 14.02146691
   3.26073346  8.90866255 16.57469223
   7.79807957  7.42388546 15.29807957
   5.24485426  7.42388546 15.29807957
   6.52305744  8.90073748 17.30222809
   6.52718419  8.91716291 19.85169224
   4.56279514  7.42392726 18.58695798
   8.48330521  7.42365853 18.57631701
   3.24565183  8.91180314 20.54791799
   3.26420470  8.90398806 23.11831011
   7.74167610  7.43621306 21.98477687
   5.28157192  7.44274512 21.95676675
   3.26073346  0.00000000  7.50000000
   3.26073346  0.00000000 10.05322531
   7.79807957 10.39343964  8.77661266
   5.24485426 10.39343964  8.77661266
   6.52146691  0.00000000 10.76073346
   6.52146691  0.00000000 13.31395877
   4.53734611 10.39343964 12.03734611
   8.50558772 10.39343964 12.03734611
   3.26073346  0.00000000 14.02146691
   3.26073346  0.00000000 16.57469223
   7.79807957 10.39343964 15.29807957
   5.24485426 10.39343964 15.29807957
   6.52166179 11.87821616 17.29646221
   6.52485766 11.87821662 19.85342361
   4.56311549 10.39319644 18.57997732
   8.48345776 10.39421854 18.56880930
   3.25693830 11.87821673 20.55195411
   3.25641856 11.87821639 23.12150026
   7.74035383 10.39770889 22.00268279
   5.29179633 10.39535049 21.99669474
   3.26073346  2.96955418  7.50000000
   3.26073346  2.96955418 10.05322531
   7.79807957  1.48477709  8.77661266
   5.24485426  1.48477709  8.77661266
   6.52146691  2.96955418 10.76073346
   6.52146691  2.96955418 13.31395877
   4.53734611  1.48477709 12.03734611
   8.50558772  1.48477709 12.03734611
   3.26073346  2.96955418 14.02146691
   3.26073346  2.96955418 16.57469223
   7.79807957  1.48477709 15.29807957
   5.24485426  1.48477709 15.29807957
   6.52305680  2.97747947 17.30222745
   6.52718444  2.96105389 19.85169147
   4.56311520  1.48502014 18.57997742
   8.48345805  1.48399756 18.56880894
   3.24565204  2.96641266 20.54791736
   3.26420545  2.97422730 23.11831149
   7.74035421  1.48050728 22.00268284
   5.29179589  1.48286589 21.99669470
   3.26073346  5.93910837  7.50000000
   3.26073346  5.93910837 10.05322531
   7.79807957  4.45433128  8.77661266
   5.24485426  4.45433128  8.77661266
   6.52146691  5.93910837 10.76073346
   6.52146691  5.93910837 13.31395877
   4.53734611  4.45433128 12.03734611
   8.50558772  4.45433128 12.03734611
   3.26073346  5.93910837 14.02146691
   3.26073346  5.93910837 16.57469223
   7.79807957  4.45433128 15.29807957
   5.24485426  4.45433128 15.29807957
   6.52241257  5.93910878 17.30894989
   6.52806468  5.93910890 19.88455821
   4.56279449  4.45428937 18.58695923
   8.48330591  4.45455872 18.57631785
   3.23868170  5.93910861 20.54537376
   3.28805287  5.93910947 23.11432679
   7.74167556  4.44200365 21.98477638
   5.28157225  4.43547140 21.95676596



--------------------------------------------------------------------------------------------------------

--------------------------------------- Iteration      FINAL  ---------------------------------------


--------------------OUTCAR has been truncated-------------------------


--------------------OUTCAR has been truncated-------------------------


--------------------OUTCAR has been truncated-------------------------


--------------------OUTCAR has been truncated-------------------------


--------------------OUTCAR has been truncated-------------------------


--------------------OUTCAR has been truncated-------------------------


--------------------OUTCAR has been truncated-------------------------


--------------------OUTCAR has been truncated-------------------------


--------------------OUTCAR has been truncated-------------------------


--------------------OUTCAR has been truncated-------------------------


  FORCE on cell =-STRESS in cart. coord.  units (eV):
  Direction    XX          YY          ZZ          XY          YZ          ZX
  --------------------------------------------------------------------------------------
  Alpha Z  4615.05738  4615.05738  4615.05738
  Ewald  973501.53769991308.72419************     0.00007     0.00020    -3.98176
  Hartree************************************     0.00009    -0.00005    -2.06509
  E(xc)   -9119.37966 -9129.05136 -9117.24690    -0.00000    -0.00001     0.01100
  Local  ************************************    -0.00012     0.00017     6.00519
  n-local -5182.05887 -5087.35748 -5225.31442    -0.00005     0.00008    -0.08414
  augment  5517.22129  5485.77511  5521.07025     0.00002    -0.00009    -0.00373
  Kinetic 28635.47957 28143.39847 28679.69357    -0.00004    -0.00025     0.32834
  Fock        0.00000     0.00000     0.00000     0.00000     0.00000     0.00000
  -------------------------------------------------------------------------------------
  Total     -39.13633  -102.94633   -79.38349    -0.00003     0.00006     0.20980
  in kB     -13.22809   -34.79590   -26.83165    -0.00001     0.00002     0.07091
  external pressure =      -24.95 kB  Pullay stress =        0.00 kB


 VOLUME and BASIS-vectors are now :
 -----------------------------------------------------------------------------
  energy-cutoff  :      600.00
  volume of cell :     4740.16
      direct lattice vectors                 reciprocal lattice vectors
    13.042933829  0.000000000  0.000000000     0.076669867  0.000000000  0.000000000
     0.000000000 11.878216733  0.000000000     0.000000000  0.084187721  0.000000000
     0.000000000  0.000000000 30.596159140     0.000000000  0.000000000  0.032683841

  length of vectors
    13.042933829 11.878216733 30.596159140     0.076669867  0.084187721  0.032683841


 FORCES acting on ions:
    Electron-Ion                     Ewald-Force                    Non-Local-Force
 -----------------------------------------------------------------------------------------------
   0.129E-01 0.142E-01 0.377E+04   -.130E-01 -.141E-01 -.377E+04   -.769E-04 -.493E-05 0.436E+00
   0.808E-02 0.132E-01 0.395E+04   -.867E-02 -.131E-01 -.394E+04   0.337E-03 -.758E-05 -.402E+01
   0.988E-01 0.340E-01 0.191E+04   -.101E+00 -.337E-01 -.191E+04   0.275E-03 -.183E-04 -.643E-01
   -.979E-02 0.111E+00 0.190E+04   0.887E-02 -.110E+00 -.190E+04   0.705E-03 -.679E-04 0.219E+00
   -.421E+00 0.384E+00 -.197E+02   0.426E+00 -.385E+00 0.205E+02   0.217E-02 0.470E-04 -.135E+00
   0.200E+01 0.110E+00 -.844E+01   -.203E+01 -.107E+00 0.738E+01   0.123E-01 -.974E-03 0.339E+00
   0.203E+02 0.454E-01 -.188E+04   -.203E+02 -.396E-01 0.188E+04   -.491E-01 -.226E-02 0.190E+00
   0.642E+01 0.211E+00 -.195E+04   -.634E+01 -.193E+00 0.195E+04   -.110E+00 -.481E-02 -.188E+00
   0.466E-01 0.111E+01 -.376E+04   0.113E+00 -.107E+01 0.376E+04   -.364E-01 -.692E-02 -.354E+00
   0.103E+01 0.155E+01 -.378E+04   -.102E+01 -.156E+01 0.378E+04   0.426E-02 -.447E-02 0.111E+01
   0.476E-02 0.143E-01 0.377E+04   -.511E-02 -.140E-01 -.377E+04   0.254E-04 -.299E-04 0.436E+00
   0.733E-02 0.433E-05 0.395E+04   -.786E-02 0.119E-05 -.394E+04   0.338E-03 -.148E-05 -.402E+01
   0.869E-01 0.325E-01 0.191E+04   -.889E-01 -.324E-01 -.191E+04   0.228E-03 -.200E-05 -.644E-01
   -.674E-01 -.242E-04 0.190E+04   0.659E-01 0.349E-05 -.190E+04   0.872E-03 -.217E-06 0.219E+00
   -.113E+01 0.344E+00 -.191E+02   0.114E+01 -.338E+00 0.200E+02   0.121E-02 -.380E-03 -.136E+00
   0.190E+01 -.215E-04 -.849E+01   -.194E+01 0.182E-04 0.742E+01   0.120E-01 -.548E-05 0.338E+00
   0.196E+02 0.726E-01 -.188E+04   -.196E+02 -.656E-01 0.188E+04   -.504E-01 -.360E-02 0.187E+00
   0.596E+01 0.161E-03 -.195E+04   -.591E+01 -.165E-03 0.195E+04   -.981E-01 0.142E-04 -.182E+00
   -.247E+00 0.293E+00 -.376E+04   0.258E+00 -.274E+00 0.376E+04   0.821E-02 -.380E-04 -.369E+00
   0.140E+01 0.254E-03 -.378E+04   -.139E+01 -.179E-03 0.378E+04   0.128E-02 0.138E-04 0.112E+01
   0.481E-02 -.142E-01 0.377E+04   -.511E-02 0.140E-01 -.377E+04   0.237E-04 0.553E-04 0.436E+00
   0.812E-02 -.132E-01 0.395E+04   -.867E-02 0.131E-01 -.394E+04   0.334E-03 0.120E-04 -.402E+01
   0.869E-01 -.326E-01 0.191E+04   -.888E-01 0.324E-01 -.191E+04   0.210E-03 -.897E-05 -.644E-01
   -.980E-02 -.111E+00 0.190E+04   0.887E-02 0.110E+00 -.190E+04   0.726E-03 0.718E-04 0.219E+00
   -.113E+01 -.344E+00 -.191E+02   0.114E+01 0.338E+00 0.200E+02   0.122E-02 0.388E-03 -.136E+00
   0.200E+01 -.110E+00 -.844E+01   -.203E+01 0.107E+00 0.738E+01   0.124E-01 0.949E-03 0.339E+00
   0.196E+02 -.728E-01 -.188E+04   -.196E+02 0.659E-01 0.188E+04   -.504E-01 0.360E-02 0.187E+00
   0.642E+01 -.211E+00 -.195E+04   -.634E+01 0.194E+00 0.195E+04   -.110E+00 0.483E-02 -.188E+00
   -.247E+00 -.293E+00 -.376E+04   0.258E+00 0.275E+00 0.376E+04   0.818E-02 0.478E-04 -.369E+00
   0.103E+01 -.155E+01 -.378E+04   -.102E+01 0.156E+01 0.378E+04   0.425E-02 0.445E-02 0.111E+01
   0.129E-01 -.142E-01 0.377E+04   -.130E-01 0.141E-01 -.377E+04   -.627E-04 0.310E-04 0.436E+00
   0.892E-02 0.956E-05 0.395E+04   -.948E-02 -.121E-05 -.394E+04   0.328E-03 0.759E-05 -.402E+01
   0.988E-01 -.340E-01 0.191E+04   -.101E+00 0.337E-01 -.191E+04   0.288E-03 0.169E-04 -.643E-01
   0.480E-01 -.514E-05 0.190E+04   -.482E-01 -.392E-05 -.190E+04   0.499E-03 0.409E-05 0.219E+00
   -.421E+00 -.384E+00 -.197E+02   0.426E+00 0.385E+00 0.205E+02   0.217E-02 -.478E-04 -.135E+00
   0.208E+01 0.105E-04 -.844E+01   -.211E+01 -.283E-04 0.737E+01   0.125E-01 0.109E-04 0.339E+00
   0.203E+02 -.451E-01 -.188E+04   -.203E+02 0.393E-01 0.188E+04   -.491E-01 0.225E-02 0.190E+00
   0.666E+01 -.525E-03 -.195E+04   -.658E+01 0.578E-03 0.195E+04   -.109E+00 0.145E-04 -.192E+00
   0.465E-01 -.111E+01 -.376E+04   0.113E+00 0.107E+01 0.376E+04   -.364E-01 0.692E-02 -.354E+00
   0.731E+00 0.112E-03 -.378E+04   -.675E+00 -.856E-04 0.378E+04   -.204E-01 0.265E-04 0.110E+01
   -.182E-01 0.130E-01 0.377E+04   0.185E-01 -.128E-01 -.377E+04   -.149E-03 -.339E-05 0.436E+00
   -.305E-02 0.258E-01 0.395E+04   0.317E-02 -.254E-01 -.394E+04   0.217E-03 -.333E-04 -.402E+01
   0.296E-01 0.132E+00 0.191E+04   -.282E-01 -.124E+00 -.191E+04   -.298E-03 -.145E-02 -.644E-01
   -.116E+00 0.922E-01 0.190E+04   0.117E+00 -.912E-01 -.190E+04   0.331E-03 -.582E-04 0.220E+00
   -.167E+01 0.271E+00 -.192E+02   0.168E+01 -.270E+00 0.200E+02   0.706E-03 -.183E-03 -.132E+00
   0.180E+01 0.104E+01 -.884E+01   -.183E+01 -.107E+01 0.782E+01   0.976E-02 0.188E-01 0.323E+00
   0.199E+02 0.124E+01 -.189E+04   -.200E+02 -.111E+01 0.189E+04   -.505E-01 -.565E-01 0.209E+00
   0.549E+01 0.189E+00 -.194E+04   -.548E+01 -.173E+00 0.194E+04   -.898E-01 -.639E-02 -.200E+00
   0.311E+01 0.404E+01 -.376E+04   -.317E+01 -.417E+01 0.376E+04   -.822E-02 0.134E-01 -.370E+00
   0.360E+00 -.284E+01 -.377E+04   -.457E+00 0.307E+01 0.377E+04   0.430E-01 -.409E-01 0.117E+01
   -.101E-01 0.130E-01 0.377E+04   0.106E-01 -.128E-01 -.377E+04   -.276E-03 -.610E-05 0.436E+00
   -.229E-02 -.836E-05 0.395E+04   0.235E-02 0.167E-05 -.394E+04   0.209E-03 0.343E-05 -.402E+01
   0.414E-01 0.127E+00 0.191E+04   -.404E-01 -.124E+00 -.191E+04   -.230E-03 -.970E-03 -.646E-01
   -.580E-01 -.225E-04 0.190E+04   0.594E-01 0.122E-04 -.190E+04   0.201E-03 0.182E-04 0.220E+00
   -.952E+00 0.199E+00 -.190E+02   0.965E+00 -.182E+00 0.198E+02   0.500E-03 -.100E-02 -.135E+00
   0.182E+01 -.973E-04 -.638E+01   -.185E+01 0.100E-03 0.529E+01   0.127E-01 0.149E-05 0.323E+00
   0.200E+02 -.220E+01 -.187E+04   -.200E+02 0.223E+01 0.187E+04   -.586E-01 -.249E-03 0.120E+00
   0.614E+01 -.507E-04 -.195E+04   -.612E+01 0.493E-04 0.195E+04   -.957E-01 -.149E-04 -.195E+00
   0.643E+00 0.747E+00 -.376E+04   -.636E+00 -.802E+00 0.376E+04   -.290E-01 0.743E-02 -.372E+00
   0.206E+01 -.439E-04 -.377E+04   -.208E+01 0.887E-04 0.377E+04   -.589E-02 -.367E-05 0.106E+01
   -.100E-01 -.130E-01 0.377E+04   0.106E-01 0.128E-01 -.377E+04   -.249E-03 0.235E-05 0.436E+00
   -.319E-02 -.258E-01 0.395E+04   0.316E-02 0.254E-01 -.394E+04   0.220E-03 0.598E-04 -.402E+01
[...]
      9.77308      1.48417     22.04113         0.018150     -0.018524      0.095687
     13.03693      2.96746     21.67658         0.022889      0.005732      0.095556
      9.78220      4.45433      8.77661        -0.000143     -0.000051     -3.677598
      0.00000      5.93911      8.77661        -0.000220      0.000015      3.046971
      0.00000      4.45433     12.03735        -0.001849     -0.000297      0.527886
      9.78220      5.93911     12.03735         0.000328     -0.000005     -0.731855
      9.78220      4.45433     15.29808         0.007542      0.001540      0.695228
      0.00000      5.93911     15.29808        -0.024495     -0.000007     -0.722108
      0.08110      4.45430     18.49122        -0.036390     -0.003487      0.047336
      9.84778      5.93911     18.68548        -0.012372      0.000067     -0.044522
      9.77338      4.45339     22.03887         0.120440     -0.038033      0.081174
     13.03167      5.93911     21.67635         0.035406      0.000052      0.095756
      3.26073      7.42389      8.77661         0.000212      0.000216     -3.678384
      6.52147      8.90866      8.77661         0.000342      0.000362      3.047615
      6.52147      7.42389     12.03735         0.001102      0.006422      0.527878
      3.26073      8.90866     12.03735         0.001139      0.001004     -0.736447
      3.26073      7.42389     15.29808         0.016050      0.000907      0.677646
      6.52147      8.90866     15.29808        -0.016926     -0.013991     -0.695249
      6.60328      7.41563     18.50751        -0.059168      0.072764     -0.038404
      3.32540      8.90962     18.68082        -0.062629      0.009586     -0.000694
      3.24579      7.42746     22.02770        -0.070075     -0.107178      0.254464
      6.51737      8.91014     21.66221        -0.052421      0.184613      0.073573
      3.26073     10.39344      8.77661         0.000258      0.000264     -3.678099
      6.52147      0.00000      8.77661         0.000277     -0.000003      3.047939
      6.52147     10.39344     12.03735         0.000814      0.002671      0.532226
      3.26073      0.00000     12.03735         0.001617      0.000008     -0.735620
      3.26073     10.39344     15.29808         0.014230      0.016284      0.688709
      6.52147      0.00000     15.29808        -0.020138      0.000004     -0.760765
      6.60519     10.38981     18.47988        -0.062670      0.027823      0.028454
      3.32711     11.87822     18.68458        -0.056279     -0.000017     -0.002010
      3.25772     10.39450     22.04120        -0.021349     -0.045699      0.138786
      6.51636     11.87822     21.66493        -0.023663      0.000042      0.095187
      3.26073      1.48478      8.77661         0.000364     -0.000250     -3.678088
      6.52147      2.96955      8.77661         0.000207     -0.000349      3.047677
      6.52147      1.48478     12.03735         0.000808     -0.002706      0.532264
      3.26073      2.96955     12.03735         0.001151     -0.000999     -0.736454
      3.26073      1.48478     15.29808         0.014244     -0.016216      0.688725
      6.52147      2.96955     15.29808        -0.016960      0.014002     -0.695201
      6.60519      1.48841     18.47988        -0.062704     -0.027778      0.028488
      3.32540      2.96860     18.68082        -0.062641     -0.009536     -0.000767
      3.25772      1.48372     22.04120        -0.021360      0.045686      0.138775
      6.51737      2.96808     21.66221        -0.052413     -0.184645      0.073642
      3.26073      4.45433      8.77661         0.000167     -0.000166     -3.678394
      6.52147      5.93911      8.77661         0.000267      0.000011      3.047480
      6.52147      4.45433     12.03735         0.001066     -0.006368      0.527903
      3.26073      5.93911     12.03735         0.000645     -0.000018     -0.737418
      3.26073      4.45433     15.29808         0.016029     -0.000951      0.677689
      6.52147      5.93911     15.29808        -0.014280     -0.000001     -0.705515
      6.60328      4.46259     18.50751        -0.059173     -0.072809     -0.038436
      3.32507      5.93911     18.68129        -0.074077     -0.000029      0.001365
      3.24579      4.45075     22.02770        -0.070081      0.107131      0.254556
      6.51000      5.93911     21.72459        -0.084690      0.000008     -0.821846
      9.78220      8.90866      7.50000         0.000052     -0.000072      2.318820
      9.78220      8.90866     10.05323         0.000034     -0.000090      1.736864
      1.27661      7.42389      8.77661        -1.970588     -0.000033     -0.777914
     11.76632      7.42389      8.77661         1.971149     -0.000024     -0.777965
      0.00000      8.90866     10.76073         0.000240     -0.000090     -1.324101
      0.00000      8.90866     13.31396         0.001410     -0.000156     -0.163952
     11.05881      7.42389     12.03735         0.402539     -0.000127      0.054325
      1.98412      7.42389     12.03735        -0.401249     -0.000275      0.055047
      9.78220      8.90866     14.02147        -0.003625     -0.000760     -0.057009
      9.78220      8.90866     16.57469         0.010852     -0.003786     -0.044198
      1.27661      7.42389     15.29808        -0.519961     -0.000384      0.099227
     11.76632      7.42389     15.29808         0.528318     -0.000181      0.095688
      0.00088      8.90916     17.30294         0.005606     -0.002700     -0.013289
      0.00542      8.90857     19.86354         0.002550     -0.002246     -0.122341
     11.08720      7.42429     18.58137        -0.008314     -0.002727      0.004520
      1.95870      7.42488     18.56816         0.071913      0.000172      0.002381
      9.78310      8.91130     20.54896        -0.006790     -0.014751      0.079824
      9.77498      8.90818     23.11986        -0.006379     -0.021863     -0.290074
      1.21648      7.42181     22.01514        -0.090083      0.006200     -0.124149
     11.81328      7.42449     22.00196         0.020087     -0.000060     -0.101457
      9.78220      0.00000      7.50000         0.000019     -0.000050      2.318831
      9.78220      0.00000     10.05323         0.000077      0.000021      1.736662
      1.27661     10.39344      8.77661        -1.970588     -0.000036     -0.777958
     11.76632     10.39344      8.77661         1.971149     -0.000054     -0.777988
      0.00000      0.00000     10.76073         0.000254      0.000008     -1.324186
      0.00000      0.00000     13.31396         0.001364      0.000007     -0.164040
     11.05881     10.39344     12.03735         0.402543     -0.000138      0.054363
      1.98412     10.39344     12.03735        -0.401366     -0.000315      0.054990
      9.78220      0.00000     14.02147        -0.004024      0.000000     -0.057299
      9.78220      0.00000     16.57469         0.014582     -0.000006     -0.057257
      1.27661     10.39344     15.29808        -0.521948     -0.001097      0.097979
     11.76632     10.39344     15.29808         0.527835     -0.000513      0.094825
      0.00086     11.87822     17.30303         0.005576      0.000023     -0.016282
      0.00535      0.00000     19.86358         0.002517      0.000025     -0.121343
     11.08770     10.39380     18.58168        -0.006216     -0.004719      0.005408
      1.95934     10.39497     18.57084         0.073534     -0.002300      0.004856
      9.78043      0.00000     20.54966         0.002867     -0.000004      0.072765
      9.77982      0.00000     23.12080        -0.002062      0.000003     -0.288710
      1.21848     10.39281     22.01113        -0.069842      0.002091     -0.114765
     11.81494     10.39321     22.00081         0.035249     -0.000354     -0.101538
      9.78220      2.96955      7.50000         0.000054      0.000049      2.318784
      9.78220      2.96955     10.05323         0.000042      0.000095      1.736802
      1.27661      1.48478      8.77661        -1.970641      0.000052     -0.777944
     11.76632      1.48478      8.77661         1.971090      0.000056     -0.777984
      0.00000      2.96955     10.76073         0.000251      0.000118     -1.324165
      0.00000      2.96955     13.31396         0.001409      0.000180     -0.163987
     11.05881      1.48478     12.03735         0.402548      0.000161      0.054370
      1.98412      1.48478     12.03735        -0.401383      0.000306      0.055005
      9.78220      2.96955     14.02147        -0.003625      0.000752     -0.057009
      9.78220      2.96955     16.57469         0.010837      0.003770     -0.044205
      1.27661      1.48478     15.29808        -0.521946      0.001112      0.097991
     11.76632      1.48478     15.29808         0.527835      0.000519      0.094821
      0.00088      2.96905     17.30294         0.005609      0.002693     -0.013254
      0.00542      2.96965     19.86354         0.002539      0.002224     -0.122331
     11.08770      1.48441     18.58168        -0.006191      0.004728      0.005417
      1.95934      1.48324     18.57084         0.073509      0.002307      0.004857
      9.78310      2.96692     20.54896        -0.006795      0.014736      0.079857
      9.77498      2.97003     23.11986        -0.006374      0.021880     -0.290108
      1.21848      1.48541     22.01113        -0.069853     -0.002095     -0.114781
     11.81494      1.48500     22.00081         0.035257      0.000358     -0.101560
      9.78220      5.93911      7.50000         0.000046     -0.000034      2.318773
      9.78220      5.93911     10.05323         0.000001     -0.000055      1.736901
      1.27661      4.45433      8.77661        -1.970565     -0.000007     -0.777921
     11.76632      4.45433      8.77661         1.971070     -0.000009     -0.777958
      0.00000      5.93911     10.76073         0.000257     -0.000015     -1.324057
      0.00000      5.93911     13.31396         0.001470     -0.000037     -0.163401
     11.05881      4.45433     12.03735         0.402536      0.000104      0.054340
      1.98412      4.45433     12.03735        -0.401256      0.000289      0.055056
      9.78220      5.93911     14.02147        -0.002764      0.000010     -0.057229
      9.78220      5.93911     16.57469         0.007711      0.000001     -0.038806
      1.27661      4.45433     15.29808        -0.519967      0.000375      0.099217
     11.76632      4.45433     15.29808         0.528332      0.000169      0.095689
      0.00080      5.93911     17.30288         0.004833      0.000000     -0.013418
      0.00432      5.93911     19.86330         0.002885     -0.000009     -0.124489
     11.08720      4.45392     18.58137        -0.008283      0.002705      0.004531
      1.95869      4.45334     18.56816         0.071899     -0.000169      0.002373
      9.78520      5.93911     20.54980        -0.004917     -0.000020      0.075386
      9.77068      5.93911     23.11734        -0.043806     -0.000021     -0.264992
      1.21648      4.45641     22.01514        -0.090045     -0.006223     -0.124142
     11.81328      4.45373     22.00196         0.020072      0.000047     -0.101470
      3.26073      8.90866      7.50000        -0.000032     -0.000178      2.319236
      3.26073      8.90866     10.05323        -0.000202     -0.000168      1.738034
      7.79808      7.42389      8.77661        -1.970855     -0.000200     -0.777933
      5.24485      7.42389      8.77661         1.970421     -0.000231     -0.777825
      6.52147      8.90866     10.76073        -0.000179     -0.001337     -1.325263
      6.52147      8.90866     13.31396         0.000743     -0.002980     -0.171394
      4.53735      7.42389     12.03735         0.400565     -0.000577      0.054928
      8.50559      7.42389     12.03735        -0.402447     -0.000429      0.054454
      3.26073      8.90866     14.02147        -0.004313     -0.003590     -0.050334
      3.26073      8.90866     16.57469         0.009712     -0.004594     -0.045632
      7.79808      7.42389     15.29808        -0.524305     -0.016000      0.093416
      5.24485      7.42389     15.29808         0.518242     -0.015237      0.093192
      6.52306      8.90074     17.30223         0.011095     -0.016941      0.015041
      6.52718      8.91716     19.85169         0.010291     -0.018933     -0.076252
      4.56280      7.42393     18.58696         0.041842     -0.006412      0.006979
      8.48331      7.42366     18.57632         0.050879     -0.007886      0.016267
      3.24565      8.91180     20.54792         0.021970      0.003033      0.026201
      3.26420      8.90399     23.11831        -0.016899      0.053795     -0.333868
      7.74168      7.43621     21.98478        -0.143397     -0.174772      0.076790
      5.28157      7.44275     21.95677         0.247041     -0.209532      0.087074
      3.26073      0.00000      7.50000        -0.000052     -0.000025      2.319172
      3.26073      0.00000     10.05323        -0.000237     -0.000018      1.737669
      7.79808     10.39344      8.77661        -1.970789     -0.000206     -0.778065
      5.24485     10.39344      8.77661         1.970347     -0.000187     -0.778011
      6.52147      0.00000     10.76073        -0.000135     -0.000018     -1.326550
      6.52147      0.00000     13.31396         0.000643      0.000013     -0.178970
      4.53735     10.39344     12.03735         0.399354     -0.000431      0.054613
      8.50559     10.39344     12.03735        -0.401135     -0.000252      0.054242
      3.26073      0.00000     14.02147        -0.004253     -0.000001     -0.052231
      3.26073      0.00000     16.57469         0.010842      0.000014     -0.058679
      7.79808     10.39344     15.29808        -0.521856     -0.005553      0.099906
      5.24485     10.39344     15.29808         0.518418     -0.007850      0.096166
      6.52166     11.87822     17.29646         0.010974      0.000021     -0.002067
      6.52486     11.87822     19.85342         0.010004      0.000033     -0.122778
      4.56312     10.39320     18.57998         0.024923     -0.004166     -0.000557
      8.48346     10.39422     18.56881         0.065418     -0.005894      0.007693
      3.25694     11.87822     20.55195         0.012398      0.000014      0.034470
      3.25642     11.87822     23.12150         0.002721      0.000006     -0.282586
      7.74035     10.39771     22.00268        -0.063529     -0.032492     -0.121255
      5.29180     10.39535     21.99669         0.099335     -0.025512     -0.127960
      3.26073      2.96955      7.50000        -0.000035      0.000131      2.319270
      3.26073      2.96955     10.05323        -0.000199      0.000183      1.738051
      7.79808      1.48478      8.77661        -1.970763      0.000192     -0.778080
      5.24485      1.48478      8.77661         1.970380      0.000194     -0.778027
      6.52147      2.96955     10.76073        -0.000195      0.001341     -1.325325
      6.52147      2.96955     13.31396         0.000750      0.002986     -0.171403
      4.53735      1.48478     12.03735         0.399382      0.000422      0.054621
      8.50559      1.48478     12.03735        -0.401140      0.000278      0.054265
      3.26073      2.96955     14.02147        -0.004312      0.003597     -0.050304
      3.26073      2.96955     16.57469         0.009713      0.004590     -0.045644
      7.79808      1.48478     15.29808        -0.521865      0.005563      0.099899
      5.24485      1.48478     15.29808         0.518404      0.007857      0.096138
      6.52306      2.97748     17.30223         0.011087      0.016968      0.015058
      6.52718      2.96105     19.85169         0.010289      0.018917     -0.076281
      4.56312      1.48502     18.57998         0.024942      0.004166     -0.000553
      8.48346      1.48400     18.56881         0.065410      0.005897      0.007691
      3.24565      2.96641     20.54792         0.021987     -0.003043      0.026235
      3.26421      2.97423     23.11831        -0.016884     -0.053751     -0.333882
      7.74035      1.48051     22.00268        -0.063524      0.032522     -0.121275
      5.29180      1.48287     21.99669         0.099354      0.025508     -0.127947
      3.26073      5.93911      7.50000        -0.000063     -0.000005      2.319247
      3.26073      5.93911     10.05323        -0.000193      0.000006      1.738275
      7.79808      4.45433      8.77661        -1.970788      0.000208     -0.777996
      5.24485      4.45433      8.77661         1.970413      0.000195     -0.777826
      6.52147      5.93911     10.76073        -0.000164     -0.000026     -1.323501
      6.52147      5.93911     13.31396         0.000356     -0.000016     -0.148595
      4.53735      4.45433     12.03735         0.400590      0.000602      0.054956
      8.50559      4.45433     12.03735        -0.402467      0.000426      0.054468
      3.26073      5.93911     14.02147        -0.005015      0.000003     -0.049111
      3.26073      5.93911     16.57469         0.012425     -0.000021     -0.047640
      7.79808      4.45433     15.29808        -0.524329      0.015988      0.093430
      5.24485      4.45433     15.29808         0.518269      0.015227      0.093184
      6.52241      5.93911     17.30895         0.009276     -0.000028      0.038042
      6.52806      5.93911     19.88456         0.010291     -0.000022      0.120285
      4.56279      4.45429     18.58696         0.041873      0.006396      0.006980
      8.48331      4.45456     18.57632         0.050834      0.007856      0.016278
      3.23868      5.93911     20.54537         0.022928     -0.000009      0.005680
      3.28805      5.93911     23.11433        -0.041670     -0.000026     -0.449113
      7.74168      4.44200     21.98478        -0.143359      0.174751      0.076789
      5.28157      4.43547     21.95677         0.246977      0.209547      0.087080
 -----------------------------------------------------------------------------------
    total drift:                               -0.005241      0.000072      0.073910


--------------------------------------------------------------------------------------------------------



  FREE ENERGIE OF THE ION-ELECTRON SYSTEM (eV)
  ---------------------------------------------------
  free  energy   TOTEN  =     -2709.83967619 eV

  energy  without entropy=    -2709.83967619  energy(sigma->0) =    -2709.83967619



--------------------------------------------------------------------------------------------------------


    POTLOK:  cpu time      1.7714: real time      1.7722


--------------------------------------------------------------------------------------------------------


     LOOP+:  cpu time   1705.8466: real time   1706.8358
    4ORBIT:  cpu time      0.0000: real time      0.0000

 total amount of memory used by VASP MPI-rank0   170039. kBytes
=======================================================================

   base      :      30000. kBytes
   nonl-proj :      49520. kBytes
   fftplans  :       7949. kBytes
   grid      :      18269. kBytes
   one-center:        233. kBytes
   wavefun   :      64068. kBytes

  
  
 General timing and accounting informations for this job:
 ========================================================
  
                  Total CPU time used (sec):     1787.834
                            User time (sec):     1775.856
                          System time (sec):       11.977
                         Elapsed time (sec):     1802.616
  
                   Maximum memory used (kb):      586188.
                   Average memory used (kb):          N/A
  
                          Minor page faults:      1038522
                          Major page faults:          733
                 Voluntary context switches:        10685
