 vasp.6.3.0 20Jan22 (build Dec 25 2023 18:06:01) complex                         
 executed on        HPECrayEX_GCC date 2023.12.27  11:50:16
 running 1024 mpi-ranks, with    1 threads/rank
 distrk:  each k-point on 1024 cores,    1 groups
 distr:  one band on NCORE=   8 cores,  128 groups


--------------------------------------------------------------------------------------------------------


 INCAR:
   SYSTEM = MgO-rocksalt
   ISMEAR = 0
   SIGMA = 0.05
   EDIFF = 1E-8
   ALGO = ALL
   ISTART = 0
   IBRION = 5
   POTIM = 0.01
   NFREE = 2
   ISYM = 0
   DIPOL = 0.5 0.5 0.5
   IDIPOL = 3
   LDIPOL = .TRUE.
   GGA = RE
   AGGAC = 0.0
   LUSE_VDW = .TRUE.
   LASPH = .TRUE.
   ENCUT = 600
   PREC = Accurate
   LASPH = .TRUE.
   LREAL = .FALSE.
   ISPIN = 1
   NELM = 200
   NELMIN = 8
   NCORE = 8
   KPAR = 1
   LWAVE = .FALSE.
   LCHARG = .FALSE.

 POTCAR:    PAW_PBE Mg_pv 13Apr2007               
 POTCAR:    PAW_PBE O 08Apr2002                   
 -----------------------------------------------------------------------------
|                                                                             |
|               ----> ADVICE to this user running VASP <----                  |
|                                                                             |
|     You have switched on vdW-DFT.                                           |
|     This routine was written and supplied by Jiri Klimes. We recommend      |
|     that you carefully read and cite the following publications:            |
|       J. Klimes, D.R. Bowler, A. Michelides                                 |
|          J. Phys.: Cond Matt. 22 022201 (2010)                              |
|       J. Klimes, D.R. Bowler, A. Michelides                                 |
|          Phys. Rev. B. 83, 195131 (2011)                                    |
|     and references therein.                                                 |
|                                                                             |
 -----------------------------------------------------------------------------

 POTCAR:    PAW_PBE Mg_pv 13Apr2007               
   SHA256 =  f474ac0dd33840b9ae76c01d57fea79fdf77cdfbb07d5ade72c65f83c709b62b Mg_pv/POTCAR          
   COPYR  = (c) Copyright 13Apr2007 Georg Kresse                                                    
   COPYR  = This file is part of the software VASP. Any use, copying, and all other rights are regul
   COPYR  = If you do not have a valid VASP license, you may not use, copy or distribute this file. 
   VRHFIN =Mg: p6s2                                                                                 
   LEXCH  = PE                                                                                      
   EATOM  =  1056.7344 eV,   77.6678 Ry                                                             
                                                                                                    
   TITEL  = PAW_PBE Mg_pv 13Apr2007                                                                 
   LULTRA =        F    use ultrasoft PP ?                                                          
   IUNSCR =        1    unscreen: 0-lin 1-nonlin 2-no                                               
   RPACOR =    1.500    partial core radius                                                         
   POMASS =   24.305; ZVAL   =    8.000    mass and valenz                                          
   RCORE  =    2.000    outmost cutoff radius                                                       
   RWIGS  =    2.000; RWIGS  =    1.058    wigner-seitz radius (au A)                               
   ENMAX  =  403.929; ENMIN  =  302.947 eV                                                          
   RCLOC  =    1.506    cutoff for local pot                                                        
   LCOR   =        T    correct aug charges                                                         
   LPAW   =        T    paw PP                                                                      
   EAUG   =  758.780                                                                                
   DEXC   =    0.000                                                                                
   RMAX   =    2.045    core radius for proj-oper                                                   
   RAUG   =    1.300    factor for augmentation sphere                                              
   RDEP   =    2.025    radius for radial grids                                                     
   RDEPT  =    1.557    core radius for aug-charge                                                  
                                                                                                    
   Atomic configuration                                                                             
    5 entries                                                                                       
     n  l   j            E        occ.                                                              
     1  0  0.50     -1259.6230   2.0000                                                             
     2  0  0.50       -79.8442   2.0000                                                             
     2  1  1.50       -46.6121   6.0000                                                             
     3  0  0.50        -4.7055   2.0000                                                             
     3  2  1.50        -1.3606   0.0000                                                             
   Description                                                                                      
     l       E           TYP  RCUT    TYP  RCUT                                                     
     1    -46.6121073     23  1.600                                                                 
     1      2.7211652     23  1.600                                                                 
     0     -4.7054661     23  2.000                                                                 
     0     61.2262170     23  2.000                                                                 
     2     -1.3605826     23  2.000                                                                 
  local pseudopotential read in
  partial core-charges read in
  partial kinetic energy density read in
  atomic valenz-charges read in
  non local Contribution for L=           1  read in
    real space projection operators read in
  non local Contribution for L=           1  read in
    real space projection operators read in
  non local Contribution for L=           0  read in
    real space projection operators read in
  non local Contribution for L=           0  read in
    real space projection operators read in
  non local Contribution for L=           2  read in
    real space projection operators read in
    PAW grid and wavefunctions read in

   number of l-projection  operators is LMAX  =           5
   number of lm-projection operators is LMMAX =          13

 POTCAR:    PAW_PBE O 08Apr2002                   
   SHA256 =  818f92134a0a090dccd8ba1447fa70422a3b330e708bb4f08108d8ae51209ddf O/POTCAR              
   COPYR  = (c) Copyright 08Apr2002 Georg Kresse                                                    
   COPYR  = This file is part of the software VASP. Any use, copying, and all other rights are regul
   COPYR  = If you do not have a valid VASP license, you may not use, copy or distribute this file. 
   VRHFIN =O: s2p4                                                                                  
   LEXCH  = PE                                                                                      
   EATOM  =   432.3788 eV,   31.7789 Ry                                                             
                                                                                                    
   TITEL  = PAW_PBE O 08Apr2002                                                                     
   LULTRA =        F    use ultrasoft PP ?                                                          
   IUNSCR =        1    unscreen: 0-lin 1-nonlin 2-no                                               
   RPACOR =    1.200    partial core radius                                                         
   POMASS =   16.000; ZVAL   =    6.000    mass and valenz                                          
   RCORE  =    1.520    outmost cutoff radius                                                       
   RWIGS  =    1.550; RWIGS  =    0.820    wigner-seitz radius (au A)                               
   ENMAX  =  400.000; ENMIN  =  300.000 eV                                                          
   ICORE  =        2    local potential                                                             
   LCOR   =        T    correct aug charges                                                         
   LPAW   =        T    paw PP                                                                      
   EAUG   =  605.392                                                                                
   DEXC   =    0.000                                                                                
   RMAX   =    1.553    core radius for proj-oper                                                   
   RAUG   =    1.300    factor for augmentation sphere                                              
   RDEP   =    1.550    radius for radial grids                                                     
   RDEPT  =    1.329    core radius for aug-charge                                                  
                                                                                                    
   Atomic configuration                                                                             
    4 entries                                                                                       
     n  l   j            E        occ.                                                              
     1  0  0.50      -514.6923   2.0000                                                             
     2  0  0.50       -23.9615   2.0000                                                             
     2  1  0.50        -9.0305   4.0000                                                             
     3  2  1.50        -9.5241   0.0000                                                             
   Description                                                                                      
     l       E           TYP  RCUT    TYP  RCUT                                                     
     0    -23.9615318     23  1.200                                                                 
     0     -9.5240782     23  1.200                                                                 
     1     -9.0304911     23  1.520                                                                 
     1      8.1634956     23  1.520                                                                 
     2     -9.5240782      7  1.500                                                                 
  local pseudopotential read in
  partial core-charges read in
  partial kinetic energy density read in
  kinetic energy density of atom read in
  atomic valenz-charges read in
  non local Contribution for L=           0  read in
    real space projection operators read in
  non local Contribution for L=           0  read in
    real space projection operators read in
  non local Contribution for L=           1  read in
    real space projection operators read in
  non local Contribution for L=           1  read in
    real space projection operators read in
    PAW grid and wavefunctions read in

   number of l-projection  operators is LMAX  =           4
   number of lm-projection operators is LMMAX =           8

 -----------------------------------------------------------------------------
|                                                                             |
|               ----> ADVICE to this user running VASP <----                  |
|                                                                             |
|     You have a (more or less) 'large supercell' and for larger cells it     |
|     might be more efficient to use real-space projection operators.         |
|     Therefore, try LREAL= Auto in the INCAR file.                           |
|     Mind: For very accurate calculation, you might also keep the            |
|     reciprocal projection scheme (i.e. LREAL=.FALSE.).                      |
|                                                                             |
 -----------------------------------------------------------------------------

 -----------------------------------------------------------------------------
|                                                                             |
|               ----> ADVICE to this user running VASP <----                  |
|                                                                             |
|     You enforced a specific xc type in the INCAR file but a different       |
|     type was found in the POTCAR file.                                      |
|     I HOPE YOU KNOW WHAT YOU ARE DOING!                                     |
|                                                                             |
 -----------------------------------------------------------------------------

  PAW_PBE Mg_pv 13Apr2007               :
 energy of atom  1       EATOM=-1056.7344
 kinetic energy error for atom=    0.0221 (will be added to EATOM!!)
  PAW_PBE O 08Apr2002                   :
 energy of atom  2       EATOM= -432.3788
 kinetic energy error for atom=    0.0168 (will be added to EATOM!!)


 POSCAR: Mg  O
  positions in direct lattice
  No initial velocities read in
 exchange correlation table for  LEXCH =       40
   RHO(1)=    0.500       N(1)  =     2000
   RHO(2)=  100.500       N(2)  =     4000



--------------------------------------------------------------------------------------------------------


 ion  position               nearest neighbor table
   1  0.000  0.750  0.350-  33 2.14  35 2.14  36 2.14  43 2.14  52 2.14
   2  0.250  0.000  0.350-  34 2.14  35 2.14  36 2.14  44 2.14  51 2.14
   3  0.000  0.000  0.450-  35 2.14  34 2.14  33 2.14  41 2.14  50 2.14  39 2.14
   4  0.250  0.750  0.450-  36 2.14  34 2.14  33 2.14  42 2.14  49 2.14  40 2.14
   5  0.000  0.750  0.550-  39 2.14  40 2.14  47 2.14  56 2.14  33 2.15  37 2.16
   6  0.250  0.000  0.550-  39 2.14  40 2.14  48 2.14  55 2.14  34 2.15  38 2.16
   7  0.000  0.000  0.650-  39 2.13  38 2.14  37 2.14  45 2.14  54 2.14
   8  0.250  0.750  0.650-  40 2.13  38 2.14  37 2.14  46 2.14  53 2.14
   9  0.000  0.250  0.350-  41 2.14  35 2.14  43 2.14  44 2.14  60 2.14
  10  0.250  0.500  0.350-  42 2.14  36 2.14  43 2.14  44 2.14  59 2.14
  11  0.000  0.500  0.450-  43 2.14  41 2.14  42 2.14  33 2.14  58 2.14  47 2.14
  12  0.250  0.250  0.450-  44 2.14  41 2.14  42 2.14  34 2.14  57 2.14  48 2.14
  13  0.000  0.250  0.550-  39 2.14  47 2.14  48 2.14  64 2.14  41 2.15  45 2.16
  14  0.250  0.500  0.550-  40 2.14  47 2.14  48 2.14  63 2.14  42 2.15  46 2.16
  15  0.000  0.500  0.650-  47 2.13  45 2.14  46 2.14  37 2.14  62 2.14
  16  0.250  0.250  0.650-  48 2.13  45 2.14  46 2.14  38 2.14  61 2.14
  17  0.500  0.750  0.350-  49 2.14  36 2.14  51 2.14  52 2.14  59 2.14
  18  0.750  0.000  0.350-  50 2.14  35 2.14  51 2.14  52 2.14  60 2.14
  19  0.500  0.000  0.450-  51 2.14  49 2.14  50 2.14  34 2.14  57 2.14  55 2.14
  20  0.750  0.750  0.450-  52 2.14  49 2.14  50 2.14  33 2.14  58 2.14  56 2.14
  21  0.500  0.750  0.550-  40 2.14  55 2.14  56 2.14  63 2.14  49 2.15  53 2.16
  22  0.750  0.000  0.550-  39 2.14  55 2.14  56 2.14  64 2.14  50 2.15  54 2.16
  23  0.500  0.000  0.650-  55 2.13  53 2.14  54 2.14  38 2.14  61 2.14
  24  0.750  0.750  0.650-  56 2.13  53 2.14  54 2.14  37 2.14  62 2.14
  25  0.500  0.250  0.350-  57 2.14  51 2.14  44 2.14  59 2.14  60 2.14
  26  0.750  0.500  0.350-  58 2.14  52 2.14  43 2.14  59 2.14  60 2.14
  27  0.500  0.500  0.450-  59 2.14  49 2.14  57 2.14  58 2.14  42 2.14  63 2.14
  28  0.750  0.250  0.450-  60 2.14  50 2.14  57 2.14  58 2.14  41 2.14  64 2.14
  29  0.500  0.250  0.550-  48 2.14  55 2.14  63 2.14  64 2.14  57 2.15  61 2.16
  30  0.750  0.500  0.550-  47 2.14  56 2.14  63 2.14  64 2.14  58 2.15  62 2.16
  31  0.500  0.500  0.650-  63 2.13  53 2.14  61 2.14  62 2.14  46 2.14
  32  0.750  0.250  0.650-  64 2.13  54 2.14  61 2.14  62 2.14  45 2.14
  33  0.000  0.750  0.450-   1 2.14   3 2.14   4 2.14  11 2.14  20 2.14   5 2.15
  34  0.250  0.000  0.450-   2 2.14   3 2.14   4 2.14  12 2.14  19 2.14   6 2.15
  35  0.000  0.000  0.350-   3 2.14   2 2.14   1 2.14   9 2.14  18 2.14
  36  0.250  0.750  0.350-   4 2.14   2 2.14   1 2.14  10 2.14  17 2.14
  37  0.000  0.750  0.651-   7 2.14   8 2.14  15 2.14  24 2.14   5 2.16
  38  0.250  0.000  0.651-   7 2.14   8 2.14  16 2.14  23 2.14   6 2.16
  39  0.000  0.000  0.550-   7 2.13   6 2.14   5 2.14  13 2.14  22 2.14   3 2.14
  40  0.250  0.750  0.550-   8 2.13   6 2.14   5 2.14  14 2.14  21 2.14   4 2.14
  41  0.000  0.250  0.450-   9 2.14   3 2.14  11 2.14  12 2.14  28 2.14  13 2.15
  42  0.250  0.500  0.450-  10 2.14   4 2.14  11 2.14  12 2.14  27 2.14  14 2.15
  43  0.000  0.500  0.350-  11 2.14   9 2.14  10 2.14   1 2.14  26 2.14
  44  0.250  0.250  0.350-  12 2.14   9 2.14  10 2.14   2 2.14  25 2.14
  45  0.000  0.250  0.651-   7 2.14  15 2.14  16 2.14  32 2.14  13 2.16
  46  0.250  0.500  0.651-   8 2.14  15 2.14  16 2.14  31 2.14  14 2.16
  47  0.000  0.500  0.550-  15 2.13  13 2.14  14 2.14   5 2.14  30 2.14  11 2.14
  48  0.250  0.250  0.550-  16 2.13  13 2.14  14 2.14   6 2.14  29 2.14  12 2.14
  49  0.500  0.750  0.450-  17 2.14   4 2.14  19 2.14  20 2.14  27 2.14  21 2.15
  50  0.750  0.000  0.450-  18 2.14   3 2.14  19 2.14  20 2.14  28 2.14  22 2.15
  51  0.500  0.000  0.350-  19 2.14  17 2.14  18 2.14   2 2.14  25 2.14
  52  0.750  0.750  0.350-  20 2.14  17 2.14  18 2.14   1 2.14  26 2.14
  53  0.500  0.750  0.651-   8 2.14  23 2.14  24 2.14  31 2.14  21 2.16
  54  0.750  0.000  0.651-   7 2.14  23 2.14  24 2.14  32 2.14  22 2.16
  55  0.500  0.000  0.550-  23 2.13  21 2.14  22 2.14   6 2.14  29 2.14  19 2.14
  56  0.750  0.750  0.550-  24 2.13  21 2.14  22 2.14   5 2.14  30 2.14  20 2.14
  57  0.500  0.250  0.450-  25 2.14  19 2.14  12 2.14  27 2.14  28 2.14  29 2.15
  58  0.750  0.500  0.450-  26 2.14  20 2.14  11 2.14  27 2.14  28 2.14  30 2.15
  59  0.500  0.500  0.350-  27 2.14  17 2.14  25 2.14  26 2.14  10 2.14
  60  0.750  0.250  0.350-  28 2.14  18 2.14  25 2.14  26 2.14   9 2.14
  61  0.500  0.250  0.651-  16 2.14  23 2.14  31 2.14  32 2.14  29 2.16
  62  0.750  0.500  0.651-  15 2.14  24 2.14  31 2.14  32 2.14  30 2.16
  63  0.500  0.500  0.550-  31 2.13  21 2.14  29 2.14  30 2.14  14 2.14  27 2.14
  64  0.750  0.250  0.550-  32 2.13  22 2.14  29 2.14  30 2.14  13 2.14  28 2.14


IMPORTANT INFORMATION: All symmetrisations will be switched off!
NOSYMM: (Re-)initialisation of all symmetry stuff for point group C_1.


----------------------------------------------------------------------------------------

                                     Primitive cell                                     

  volume of cell :    1563.6717

  direct lattice vectors                    reciprocal lattice vectors
     8.546113626  0.000000000  0.000000000     0.117012252  0.000000000  0.000000000
     0.000000000  8.546113626  0.000000000     0.000000000  0.117012252  0.000000000
     0.000000000  0.000000000 21.409585219     0.000000000  0.000000000  0.046708051

  length of vectors
     8.546113626  8.546113626 21.409585219     0.117012252  0.117012252  0.046708051

  position of ions in fractional coordinates (direct lattice)
     0.000000000  0.750000000  0.350310383
     0.250000000  0.000000000  0.350310383
     0.000000000  0.000000000  0.450103461
     0.250000000  0.750000000  0.450103461
     0.000000000  0.750000000  0.550423065
     0.250000000  0.000000000  0.550423065
     0.000000000  0.000000000  0.649678241
     0.250000000  0.750000000  0.649678241
     0.000000000  0.250000000  0.350310383
     0.250000000  0.500000000  0.350310383
     0.000000000  0.500000000  0.450103461
     0.250000000  0.250000000  0.450103461
     0.000000000  0.250000000  0.550423065
     0.250000000  0.500000000  0.550423065
     0.000000000  0.500000000  0.649678241
     0.250000000  0.250000000  0.649678241
     0.500000000  0.750000000  0.350310383
     0.750000000  0.000000000  0.350310383
     0.500000000  0.000000000  0.450103461
     0.750000000  0.750000000  0.450103461
     0.500000000  0.750000000  0.550423065
     0.750000000  0.000000000  0.550423065
     0.500000000  0.000000000  0.649678241
     0.750000000  0.750000000  0.649678241
     0.500000000  0.250000000  0.350310383
     0.750000000  0.500000000  0.350310383
     0.500000000  0.500000000  0.450103461
     0.750000000  0.250000000  0.450103461
     0.500000000  0.250000000  0.550423065
     0.750000000  0.500000000  0.550423065
     0.500000000  0.500000000  0.649678241
     0.750000000  0.250000000  0.649678241
     0.000000000  0.750000000  0.450103461
     0.250000000  0.000000000  0.450103461
     0.000000000  0.000000000  0.350310383
     0.250000000  0.750000000  0.350310383
     0.000000000  0.750000000  0.651489980
     0.250000000  0.000000000  0.651489980
     0.000000000  0.000000000  0.550159231
     0.250000000  0.750000000  0.550159231
     0.000000000  0.250000000  0.450103461
     0.250000000  0.500000000  0.450103461
     0.000000000  0.500000000  0.350310383
     0.250000000  0.250000000  0.350310383
     0.000000000  0.250000000  0.651489980
     0.250000000  0.500000000  0.651489980
     0.000000000  0.500000000  0.550159231
     0.250000000  0.250000000  0.550159231
     0.500000000  0.750000000  0.450103461
     0.750000000  0.000000000  0.450103461
     0.500000000  0.000000000  0.350310383
     0.750000000  0.750000000  0.350310383
     0.500000000  0.750000000  0.651489980
     0.750000000  0.000000000  0.651489980
     0.500000000  0.000000000  0.550159231
     0.750000000  0.750000000  0.550159231
     0.500000000  0.250000000  0.450103461
     0.750000000  0.500000000  0.450103461
     0.500000000  0.500000000  0.350310383
     0.750000000  0.250000000  0.350310383
     0.500000000  0.250000000  0.651489980
     0.750000000  0.500000000  0.651489980
     0.500000000  0.500000000  0.550159231
     0.750000000  0.250000000  0.550159231

  ion indices of the primitive-cell ions
   primitive index   ion index
                 1           1
                 2           2
                 3           3
                 4           4
                 5           5
                 6           6
                 7           7
                 8           8
                 9           9
                10          10
                11          11
                12          12
                13          13
                14          14
                15          15
                16          16
                17          17
                18          18
                19          19
                20          20
                21          21
                22          22
                23          23
                24          24
                25          25
                26          26
                27          27
                28          28
                29          29
                30          30
                31          31
                32          32
                33          33
                34          34
                35          35
                36          36
                37          37
                38          38
                39          39
                40          40
                41          41
                42          42
                43          43
                44          44
                45          45
                46          46
                47          47
                48          48
                49          49
                50          50
                51          51
                52          52
                53          53
                54          54
                55          55
                56          56
                57          57
                58          58
                59          59
                60          60
                61          61
                62          62
                63          63
                64          64

----------------------------------------------------------------------------------------



 KPOINTS: pymatgen v2020.8.13 with grid density = 

Automatic generation of k-mesh.
 Grid dimensions read from file:
 generate k-points for:    2    2    1

 Generating k-lattice:

  Cartesian coordinates                     Fractional coordinates (reciprocal lattice)
     0.058506126  0.000000000  0.000000000     0.500000000  0.000000000  0.000000000
     0.000000000  0.058506126  0.000000000     0.000000000  0.500000000  0.000000000
     0.000000000  0.000000000  0.046708051     0.000000000  0.000000000  1.000000000

  Length of vectors
     0.058506126  0.058506126  0.046708051

  Shift w.r.t. Gamma in fractional coordinates (k-lattice)
     0.000000000  0.000000000  0.000000000

 
 Subroutine IBZKPT returns following result:
 ===========================================
 
 Found      4 irreducible k-points:
 
 Following reciprocal coordinates:
            Coordinates               Weight
  0.000000  0.000000  0.000000      1.000000
  0.500000  0.000000  0.000000      1.000000
  0.000000  0.500000  0.000000      1.000000
  0.500000  0.500000  0.000000      1.000000
 
 Following cartesian coordinates:
            Coordinates               Weight
  0.000000  0.000000  0.000000      1.000000
  0.058506  0.000000  0.000000      1.000000
  0.000000  0.058506  0.000000      1.000000
  0.058506  0.058506  0.000000      1.000000
 
 
 Subroutine IBZKPT_HF returns following result:
 ==============================================
 
 Found      4 k-points in 1st BZ
 the following      4 k-points will be used (e.g. in the exchange kernel)
 Following reciprocal coordinates:   # in IRBZ
  0.000000  0.000000  0.000000    0.25000000   1 t-inv F
  0.500000  0.000000  0.000000    0.25000000   2 t-inv F
  0.000000  0.500000  0.000000    0.25000000   3 t-inv F
  0.500000  0.500000  0.000000    0.25000000   4 t-inv F


--------------------------------------------------------------------------------------------------------




 Dimension of arrays:
   k-points           NKPTS =      4   k-points in BZ     NKDIM =      4   number of bands    NBANDS=    384
   number of dos      NEDOS =    301   number of ions     NIONS =     64
   non local maximal  LDIM  =      5   non local SUM 2l+1 LMDIM =     13
   total plane-waves  NPLWV = 882000
   max r-space proj   IRMAX =      1   max aug-charges    IRDMAX=  11315
   dimension x,y,z NGX =    70 NGY =   70 NGZ =  180
   dimension x,y,z NGXF=   140 NGYF=  140 NGZF=  360
   support grid    NGXF=   140 NGYF=  140 NGZF=  360
   ions per type =              32  32
   NGX,Y,Z   is equivalent  to a cutoff of  13.62, 13.62, 13.98 a.u.
   NGXF,Y,Z  is equivalent  to a cutoff of  27.23, 27.23, 27.95 a.u.

 SYSTEM =  MgO-rocksalt                            
 POSCAR =  Mg  O                                   

--------------------------------------------------------------------------------------------------------


  energy-cutoff  :      600.00
  volume of cell :     1563.67
      direct lattice vectors                 reciprocal lattice vectors
     8.546113626  0.000000000  0.000000000     0.117012252  0.000000000  0.000000000
     0.000000000  8.546113626  0.000000000     0.000000000  0.117012252  0.000000000
     0.000000000  0.000000000 21.409585219     0.000000000  0.000000000  0.046708051

  length of vectors
     8.546113626  8.546113626 21.409585219     0.117012252  0.117012252  0.046708051



 k-points in units of 2pi/SCALE and weight: pymatgen v2020.8.13 with grid density = 
   0.00000000  0.00000000  0.00000000       0.250
   0.05850613  0.00000000  0.00000000       0.250
   0.00000000  0.05850613  0.00000000       0.250
   0.05850613  0.05850613  0.00000000       0.250

 k-points in reciprocal lattice and weights: pymatgen v2020.8.13 with grid density = 
   0.00000000  0.00000000  0.00000000       0.250
   0.50000000  0.00000000  0.00000000       0.250
   0.00000000  0.50000000  0.00000000       0.250
   0.50000000  0.50000000  0.00000000       0.250

 position of ions in fractional coordinates (direct lattice) 
   0.00000000  0.75000000  0.35031038
   0.25000000  0.00000000  0.35031038
   0.00000000  0.00000000  0.45010346
   0.25000000  0.75000000  0.45010346
   0.00000000  0.75000000  0.55042306
   0.25000000  0.00000000  0.55042306
   0.00000000  0.00000000  0.64967824
   0.25000000  0.75000000  0.64967824
   0.00000000  0.25000000  0.35031038
   0.25000000  0.50000000  0.35031038
   0.00000000  0.50000000  0.45010346
   0.25000000  0.25000000  0.45010346
   0.00000000  0.25000000  0.55042306
   0.25000000  0.50000000  0.55042306
   0.00000000  0.50000000  0.64967824
   0.25000000  0.25000000  0.64967824
   0.50000000  0.75000000  0.35031038
   0.75000000  0.00000000  0.35031038
   0.50000000  0.00000000  0.45010346
   0.75000000  0.75000000  0.45010346
   0.50000000  0.75000000  0.55042306
   0.75000000  0.00000000  0.55042306
   0.50000000  0.00000000  0.64967824
   0.75000000  0.75000000  0.64967824
   0.50000000  0.25000000  0.35031038
   0.75000000  0.50000000  0.35031038
   0.50000000  0.50000000  0.45010346
   0.75000000  0.25000000  0.45010346
   0.50000000  0.25000000  0.55042306
   0.75000000  0.50000000  0.55042306
   0.50000000  0.50000000  0.64967824
   0.75000000  0.25000000  0.64967824
   0.00000000  0.75000000  0.45010346
   0.25000000  0.00000000  0.45010346
   0.00000000  0.00000000  0.35031038
   0.25000000  0.75000000  0.35031038
   0.00000000  0.75000000  0.65148998
   0.25000000  0.00000000  0.65148998
   0.00000000  0.00000000  0.55015923
   0.25000000  0.75000000  0.55015923
   0.00000000  0.25000000  0.45010346
   0.25000000  0.50000000  0.45010346
   0.00000000  0.50000000  0.35031038
   0.25000000  0.25000000  0.35031038
   0.00000000  0.25000000  0.65148998
   0.25000000  0.50000000  0.65148998
   0.00000000  0.50000000  0.55015923
   0.25000000  0.25000000  0.55015923
   0.50000000  0.75000000  0.45010346
   0.75000000  0.00000000  0.45010346
   0.50000000  0.00000000  0.35031038
   0.75000000  0.75000000  0.35031038
   0.50000000  0.75000000  0.65148998
   0.75000000  0.00000000  0.65148998
   0.50000000  0.00000000  0.55015923
   0.75000000  0.75000000  0.55015923
   0.50000000  0.25000000  0.45010346
   0.75000000  0.50000000  0.45010346
   0.50000000  0.50000000  0.35031038
   0.75000000  0.25000000  0.35031038
   0.50000000  0.25000000  0.65148998
   0.75000000  0.50000000  0.65148998
   0.50000000  0.50000000  0.55015923
   0.75000000  0.25000000  0.55015923

 position of ions in cartesian coordinates  (Angst):
   0.00000000  6.40958522  7.50000000
   2.13652841  0.00000000  7.50000000
   0.00000000  0.00000000  9.63652841
   2.13652841  6.40958522  9.63652841
   0.00000000  6.40958522 11.78432951
   2.13652841  0.00000000 11.78432951
   0.00000000  0.00000000 13.90934166
   2.13652841  6.40958522 13.90934166
   0.00000000  2.13652841  7.50000000
   2.13652841  4.27305681  7.50000000
   0.00000000  4.27305681  9.63652841
   2.13652841  2.13652841  9.63652841
   0.00000000  2.13652841 11.78432951
   2.13652841  4.27305681 11.78432951
   0.00000000  4.27305681 13.90934166
   2.13652841  2.13652841 13.90934166
   4.27305681  6.40958522  7.50000000
   6.40958522  0.00000000  7.50000000
   4.27305681  0.00000000  9.63652841
   6.40958522  6.40958522  9.63652841
   4.27305681  6.40958522 11.78432951
   6.40958522  0.00000000 11.78432951
   4.27305681  0.00000000 13.90934166
   6.40958522  6.40958522 13.90934166
   4.27305681  2.13652841  7.50000000
   6.40958522  4.27305681  7.50000000
   4.27305681  4.27305681  9.63652841
   6.40958522  2.13652841  9.63652841
   4.27305681  2.13652841 11.78432951
   6.40958522  4.27305681 11.78432951
   4.27305681  4.27305681 13.90934166
   6.40958522  2.13652841 13.90934166
   0.00000000  6.40958522  9.63652841
   2.13652841  0.00000000  9.63652841
   0.00000000  0.00000000  7.50000000
   2.13652841  6.40958522  7.50000000
   0.00000000  6.40958522 13.94813025
   2.13652841  0.00000000 13.94813025
   0.00000000  0.00000000 11.77868095
   2.13652841  6.40958522 11.77868095
   0.00000000  2.13652841  9.63652841
   2.13652841  4.27305681  9.63652841
   0.00000000  4.27305681  7.50000000
   2.13652841  2.13652841  7.50000000
   0.00000000  2.13652841 13.94813025
   2.13652841  4.27305681 13.94813025
   0.00000000  4.27305681 11.77868095
   2.13652841  2.13652841 11.77868095
   4.27305681  6.40958522  9.63652841
   6.40958522  0.00000000  9.63652841
   4.27305681  0.00000000  7.50000000
   6.40958522  6.40958522  7.50000000
   4.27305681  6.40958522 13.94813025
   6.40958522  0.00000000 13.94813025
   4.27305681  0.00000000 11.77868095
   6.40958522  6.40958522 11.77868095
   4.27305681  2.13652841  9.63652841
   6.40958522  4.27305681  9.63652841
   4.27305681  4.27305681  7.50000000
   6.40958522  2.13652841  7.50000000
   4.27305681  2.13652841 13.94813025
   6.40958522  4.27305681 13.94813025
   4.27305681  4.27305681 11.77868095
   6.40958522  2.13652841 11.77868095



--------------------------------------------------------------------------------------------------------

--------------------------------------- Iteration      FINAL  ---------------------------------------


--------------------OUTCAR has been truncated-------------------------


--------------------OUTCAR has been truncated-------------------------


--------------------OUTCAR has been truncated-------------------------


--------------------OUTCAR has been truncated-------------------------


--------------------OUTCAR has been truncated-------------------------


--------------------OUTCAR has been truncated-------------------------


--------------------OUTCAR has been truncated-------------------------


--------------------OUTCAR has been truncated-------------------------


--------------------OUTCAR has been truncated-------------------------


--------------------OUTCAR has been truncated-------------------------


  FORCE on cell =-STRESS in cart. coord.  units (eV):
  Direction    XX          YY          ZZ          XY          YZ          ZX
  --------------------------------------------------------------------------------------
  Alpha Z   850.71337   850.71337   850.71337
  Ewald  156231.65332156231.65332************    -0.00000    -0.00000    -0.00000
  Hartree166335.83771166335.83771************    -0.00000    -0.00000     0.00000
  E(xc)   -2518.31794 -2518.31794 -2520.80500    -0.00000     0.00000     0.00000
  Local  ************************332461.39805     0.00000     0.00000    -0.00000
  n-local -2815.74283 -2815.74283 -2834.38208     0.00000    -0.00000    -0.00000
  augment  1078.43648  1078.43648  1069.80863     0.00000    -0.00000     0.00000
  Kinetic  7305.80103  7305.80103  7343.87412    -0.00000    -0.00000     0.00000
  Fock        0.00000     0.00000     0.00000     0.00000     0.00000     0.00000
  -------------------------------------------------------------------------------------
  Total     -30.73537   -30.73537    -2.60427     0.00000    -0.00000    -0.00000
  in kB     -31.49223   -31.49223    -2.66840     0.00000    -0.00000    -0.00000
  external pressure =      -21.88 kB  Pullay stress =        0.00 kB


 VOLUME and BASIS-vectors are now :
 -----------------------------------------------------------------------------
  energy-cutoff  :      600.00
  volume of cell :     1563.67
      direct lattice vectors                 reciprocal lattice vectors
     8.546113626  0.000000000  0.000000000     0.117012252  0.000000000  0.000000000
     0.000000000  8.546113626  0.000000000     0.000000000  0.117012252  0.000000000
     0.000000000  0.000000000 21.409585219     0.000000000  0.000000000  0.046708051

  length of vectors
     8.546113626  8.546113626 21.409585219     0.117012252  0.117012252  0.046708051


 FORCES acting on ions:
    Electron-Ion                     Ewald-Force                    Non-Local-Force
 -----------------------------------------------------------------------------------------------
   -.211E-01 -.304E-07 0.201E+04   0.187E-01 0.717E-13 -.200E+04   0.177E-02 0.169E-07 -.640E+01
   -.105E-07 0.211E-01 0.201E+04   -.188E-13 -.187E-01 -.200E+04   -.260E-07 -.177E-02 -.640E+01
   -.135E+00 0.135E+00 0.664E+03   0.125E+00 -.125E+00 -.665E+03   0.763E-02 -.763E-02 0.460E+00
   0.116E-07 0.254E-07 0.664E+03   0.166E-13 0.180E-13 -.665E+03   -.114E-07 -.318E-07 0.459E+00
   0.505E-04 -.408E-07 -.669E+03   -.293E-03 -.213E-13 0.669E+03   0.182E-03 -.203E-07 -.257E+00
   0.173E-07 -.505E-04 -.669E+03   0.266E-13 0.293E-03 0.669E+03   0.103E-09 -.182E-03 -.257E+00
   0.135E+00 -.135E+00 -.199E+04   -.125E+00 0.125E+00 0.199E+04   -.759E-02 0.759E-02 0.562E+01
   0.305E-07 0.149E-07 -.199E+04   0.726E-13 0.105E-13 0.199E+04   -.166E-07 -.372E-07 0.562E+01
   -.605E-01 0.219E-07 0.201E+04   0.594E-01 0.159E-13 -.200E+04   0.651E-03 0.214E-07 -.641E+01
   -.446E-08 -.211E-01 0.201E+04   -.202E-13 0.187E-01 -.200E+04   0.243E-07 0.177E-02 -.640E+01
   -.135E+00 -.135E+00 0.664E+03   0.125E+00 0.125E+00 -.665E+03   0.763E-02 0.763E-02 0.460E+00
   0.779E-08 0.105E-08 0.664E+03   -.660E-13 0.388E-13 -.665E+03   -.665E-07 0.216E-07 0.462E+00
   0.954E-02 -.353E-07 -.670E+03   -.105E-01 0.323E-14 0.670E+03   0.661E-03 0.108E-06 -.221E+00
   0.270E-07 0.505E-04 -.669E+03   -.282E-13 -.293E-03 0.669E+03   0.733E-08 0.182E-03 -.257E+00
   0.135E+00 0.135E+00 -.199E+04   -.125E+00 -.125E+00 0.199E+04   -.759E-02 -.759E-02 0.562E+01
   0.384E-07 -.241E-07 -.199E+04   -.219E-13 -.564E-13 0.199E+04   0.183E-07 0.782E-07 0.563E+01
   0.211E-01 -.248E-07 0.201E+04   -.187E-01 0.695E-13 -.200E+04   -.177E-02 -.272E-07 -.640E+01
   0.698E-08 0.605E-01 0.201E+04   -.194E-13 -.594E-01 -.200E+04   -.133E-07 -.651E-03 -.641E+01
   0.135E+00 0.135E+00 0.664E+03   -.125E+00 -.125E+00 -.665E+03   -.763E-02 -.763E-02 0.460E+00
   0.232E-07 0.172E-07 0.664E+03   0.123E-15 0.464E-13 -.665E+03   -.776E-08 -.138E-06 0.462E+00
   -.505E-04 -.170E-07 -.669E+03   0.293E-03 0.287E-13 0.669E+03   -.182E-03 -.928E-09 -.257E+00
   0.360E-07 -.954E-02 -.670E+03   -.448E-13 0.105E-01 0.670E+03   -.115E-06 -.661E-03 -.221E+00
   -.135E+00 -.135E+00 -.199E+04   0.125E+00 0.125E+00 0.199E+04   0.759E-02 0.759E-02 0.562E+01
   0.475E-07 0.759E-07 -.199E+04   -.252E-13 0.694E-14 0.199E+04   0.178E-07 -.384E-07 0.563E+01
   0.605E-01 -.160E-07 0.201E+04   -.594E-01 0.159E-13 -.200E+04   -.651E-03 -.713E-08 -.641E+01
   0.322E-07 -.605E-01 0.201E+04   -.429E-13 0.594E-01 -.200E+04   0.252E-07 0.651E-03 -.641E+01
   0.135E+00 -.135E+00 0.664E+03   -.125E+00 0.125E+00 -.665E+03   -.763E-02 0.763E-02 0.460E+00
   -.458E-08 -.445E-08 0.666E+03   -.359E-14 0.140E-13 -.666E+03   0.179E-06 0.179E-06 0.308E+00
   -.954E-02 0.579E-07 -.670E+03   0.105E-01 0.565E-13 0.670E+03   -.661E-03 -.817E-07 -.221E+00
   -.137E-07 0.954E-02 -.670E+03   -.571E-13 -.105E-01 0.670E+03   0.791E-07 0.661E-03 -.221E+00
   -.135E+00 0.135E+00 -.199E+04   0.125E+00 -.125E+00 0.199E+04   0.759E-02 -.759E-02 0.562E+01
   0.207E-06 0.315E-06 -.199E+04   0.214E-13 -.567E-13 0.199E+04   -.900E-07 -.293E-06 0.548E+01
   -.290E-01 -.433E-07 0.498E+03   0.256E-01 -.239E-13 -.498E+03   0.472E-02 -.329E-08 -.647E-01
   -.120E-07 0.290E-01 0.498E+03   0.927E-14 -.256E-01 -.498E+03   -.578E-08 -.472E-02 -.647E-01
   -.293E-01 0.293E-01 0.151E+04   0.270E-01 -.270E-01 -.151E+04   0.308E-02 -.308E-02 0.358E+01
   0.978E-08 -.321E-08 0.151E+04   0.811E-13 0.352E-14 -.151E+04   -.103E-08 -.387E-08 0.358E+01
   0.302E-01 0.112E-06 -.151E+04   -.256E-01 0.805E-12 0.152E+04   -.630E-02 0.131E-07 -.485E+01
   -.869E-07 -.302E-01 -.151E+04   -.795E-12 0.256E-01 0.152E+04   -.179E-07 0.630E-02 -.485E+01
   0.182E-03 -.182E-03 -.497E+03   -.634E-03 0.634E-03 0.497E+03   0.609E-03 -.609E-03 0.288E+00
   0.270E-08 -.142E-07 -.497E+03   0.804E-11 -.801E-11 0.497E+03   0.263E-08 -.424E-08 0.277E+00
   -.292E+00 0.287E-07 0.498E+03   0.269E+00 0.839E-12 -.498E+03   0.335E-01 0.657E-08 -.870E-01
   0.148E-07 -.290E-01 0.498E+03   0.839E-12 0.256E-01 -.498E+03   0.693E-08 0.472E-02 -.647E-01
   -.293E-01 -.293E-01 0.151E+04   0.270E-01 0.270E-01 -.151E+04   0.308E-02 0.308E-02 0.358E+01
   -.220E-07 0.668E-07 0.151E+04   0.231E-13 -.262E-13 -.151E+04   0.464E-08 0.400E-08 0.357E+01
   0.284E+00 -.427E-07 -.151E+04   -.262E+00 -.792E-11 0.152E+04   -.332E-01 0.355E-07 -.488E+01
   0.199E-06 0.302E-01 -.151E+04   -.241E-11 -.256E-01 0.152E+04   0.250E-07 -.630E-02 -.485E+01
   0.182E-03 0.182E-03 -.497E+03   -.634E-03 -.634E-03 0.497E+03   0.609E-03 0.609E-03 0.288E+00
   -.488E-08 0.257E-07 -.497E+03   0.881E-11 0.142E-13 0.497E+03   0.207E-07 0.125E-07 0.284E+00
   0.290E-01 -.154E-07 0.498E+03   -.256E-01 -.630E-13 -.498E+03   -.472E-02 -.215E-08 -.647E-01
   -.523E-07 0.292E+00 0.498E+03   -.160E-11 -.269E+00 -.498E+03   -.218E-07 -.335E-01 -.870E-01
   0.293E-01 0.293E-01 0.151E+04   -.270E-01 -.270E-01 -.151E+04   -.308E-02 -.308E-02 0.358E+01
   0.170E-07 -.504E-07 0.151E+04   -.301E-13 -.134E-13 -.151E+04   0.173E-08 0.189E-07 0.357E+01
   -.302E-01 -.115E-06 -.151E+04   0.256E-01 0.793E-12 0.152E+04   0.630E-02 -.177E-07 -.485E+01
   0.184E-07 -.284E+00 -.151E+04   0.949E-11 0.262E+00 0.152E+04   -.547E-07 0.332E-01 -.488E+01
   -.182E-03 -.182E-03 -.497E+03   0.634E-03 0.634E-03 0.497E+03   -.609E-03 -.609E-03 0.288E+00
   -.113E-08 -.977E-07 -.497E+03   -.852E-12 -.803E-11 0.497E+03   -.412E-08 0.752E-09 0.284E+00
   0.292E+00 -.752E-07 0.498E+03   -.269E+00 0.817E-12 -.498E+03   -.335E-01 -.431E-07 -.870E-01
   0.215E-07 -.292E+00 0.498E+03   -.796E-12 0.269E+00 -.498E+03   0.216E-07 0.335E-01 -.870E-01
   0.293E-01 -.293E-01 0.151E+04   -.270E-01 0.270E-01 -.151E+04   -.308E-02 0.308E-02 0.358E+01
   0.173E-07 0.577E-07 0.151E+04   0.552E-13 -.497E-13 -.151E+04   -.652E-08 0.392E-08 0.357E+01
   -.284E+00 -.732E-07 -.151E+04   0.262E+00 -.792E-11 0.152E+04   0.332E-01 -.544E-07 -.488E+01
   0.167E-06 0.284E+00 -.151E+04   0.789E-11 -.262E+00 0.152E+04   0.982E-07 -.332E-01 -.488E+01
   -.182E-03 0.182E-03 -.497E+03   0.634E-03 -.634E-03 0.497E+03   -.609E-03 0.609E-03 0.288E+00
   -.780E-08 0.262E-06 -.495E+03   -.143E-13 0.567E-13 0.495E+03   0.150E-07 -.242E-07 0.383E+00
 -----------------------------------------------------------------------------------------------
   -.845E-07 0.217E-06 0.133E+02   0.225E-12 0.110E-12 -.141E-10   0.290E-06 -.310E-06 -.133E+02


 POSITION                                       TOTAL-FORCE (eV/Angst)
 -----------------------------------------------------------------------------------
      0.00000      6.40959      7.50000        -0.000662     -0.000000      0.322661
      2.13653      0.00000      7.50000        -0.000000      0.000662      0.322661
      0.00000      0.00000      9.63653        -0.002758      0.002758      0.022902
      2.13653      6.40959      9.63653        -0.000000     -0.000000      0.022842
      0.00000      6.40959     11.78433        -0.000060     -0.000000     -0.000053
      2.13653      0.00000     11.78433         0.000000      0.000060     -0.000053
      0.00000      0.00000     13.90934         0.002668     -0.002668     -0.016098
      2.13653      6.40959     13.90934         0.000000     -0.000000     -0.015414
      0.00000      2.13653      7.50000        -0.000404      0.000000      0.324770
      2.13653      4.27306      7.50000         0.000000     -0.000662      0.322661
      0.00000      4.27306      9.63653        -0.002758     -0.002758      0.022902
      2.13653      2.13653      9.63653        -0.000000      0.000000      0.022020
      0.00000      2.13653     11.78433        -0.000289      0.000000     -0.012023
      2.13653      4.27306     11.78433         0.000000     -0.000060     -0.000053
      0.00000      4.27306     13.90934         0.002668      0.002668     -0.016098
      2.13653      2.13653     13.90934         0.000000      0.000000     -0.017025
      4.27306      6.40959      7.50000         0.000662     -0.000000      0.322661
      6.40959      0.00000      7.50000        -0.000000      0.000404      0.324770
      4.27306      0.00000      9.63653         0.002758      0.002758      0.022902
      6.40959      6.40959      9.63653         0.000000     -0.000000      0.022020
      4.27306      6.40959     11.78433         0.000060     -0.000000     -0.000053
      6.40959      0.00000     11.78433        -0.000000      0.000289     -0.012023
      4.27306      0.00000     13.90934        -0.002668     -0.002668     -0.016098
      6.40959      6.40959     13.90934         0.000000      0.000000     -0.017025
      4.27306      2.13653      7.50000         0.000404     -0.000000      0.324770
      6.40959      4.27306      7.50000         0.000000     -0.000404      0.324770
      4.27306      4.27306      9.63653         0.002758     -0.002758      0.022902
      6.40959      2.13653      9.63653         0.000000      0.000000      0.012290
      4.27306      2.13653     11.78433         0.000289     -0.000000     -0.012023
      6.40959      4.27306     11.78433         0.000000     -0.000289     -0.012023
      4.27306      4.27306     13.90934        -0.002669      0.002668     -0.016098
      6.40959      2.13653     13.90934         0.000000      0.000000     -0.027947
      0.00000      6.40959      9.63653         0.001352     -0.000000      0.055392
      2.13653      0.00000      9.63653        -0.000000     -0.001352      0.055392
      0.00000      0.00000      7.50000         0.000874     -0.000874     -0.396820
      2.13653      6.40959      7.50000         0.000000     -0.000000     -0.395845
      0.00000      6.40959     13.94813        -0.001734      0.000000      0.008134
      2.13653      0.00000     13.94813        -0.000000      0.001734      0.008135
      0.00000      0.00000     11.77868         0.000157     -0.000157      0.006735
      2.13653      6.40959     11.77868         0.000000     -0.000000      0.003522
      0.00000      2.13653      9.63653         0.010662      0.000000      0.047897
      2.13653      4.27306      9.63653         0.000000      0.001352      0.055392
      0.00000      4.27306      7.50000         0.000874      0.000874     -0.396820
      2.13653      2.13653      7.50000        -0.000000      0.000000     -0.397417
      0.00000      2.13653     13.94813        -0.010790     -0.000000      0.001420
      2.13653      4.27306     13.94813         0.000000     -0.001734      0.008135
      0.00000      4.27306     11.77868         0.000157      0.000157      0.006735
      2.13653      2.13653     11.77868         0.000000      0.000000      0.005529
      4.27306      6.40959      9.63653        -0.001352     -0.000000      0.055392
      6.40959      0.00000      9.63653        -0.000000     -0.010662      0.047897
      4.27306      0.00000      7.50000        -0.000874     -0.000874     -0.396820
      6.40959      6.40959      7.50000         0.000000     -0.000000     -0.397417
      4.27306      6.40959     13.94813         0.001734     -0.000000      0.008134
      6.40959      0.00000     13.94813        -0.000000      0.010789      0.001420
      4.27306      0.00000     11.77868        -0.000157     -0.000157      0.006735
      6.40959      6.40959     11.77868        -0.000000     -0.000000      0.005529
      4.27306      2.13653      9.63653        -0.010662     -0.000000      0.047897
      6.40959      4.27306      9.63653         0.000000      0.010662      0.047897
      4.27306      4.27306      7.50000        -0.000874      0.000874     -0.396820
      6.40959      2.13653      7.50000         0.000000      0.000000     -0.398678
      4.27306      2.13653     13.94813         0.010789     -0.000000      0.001420
      6.40959      4.27306     13.94813         0.000000     -0.010790      0.001420
      4.27306      4.27306     11.77868        -0.000157      0.000157      0.006735
      6.40959      2.13653     11.76868         0.000000      0.000000      0.113348
 -----------------------------------------------------------------------------------
    total drift:                                0.000000     -0.000000      0.027480


--------------------------------------------------------------------------------------------------------



  FREE ENERGIE OF THE ION-ELECTRON SYSTEM (eV)
  ---------------------------------------------------
  free  energy   TOTEN  =      -227.13596539 eV

  energy  without entropy=     -227.13596539  energy(sigma->0) =     -227.13596539

 d Force = 0.2663714E-04[-0.227E-02, 0.232E-02]  d Energy = 0.1713540E-04 0.950E-05
 d Force =-0.9932099E+01[-0.989E+01,-0.997E+01]  d Ewald  =-0.9932101E+01 0.191E-05


--------------------------------------------------------------------------------------------------------


    POTLOK:  cpu time      4.6947: real time      4.6965


--------------------------------------------------------------------------------------------------------


 Finite differences progress:
  Degree of freedom:  96/ 96
  Displacement:        2/  2
  Total:             192/192

 SECOND DERIVATIVES (NOT SYMMETRIZED)
 ------------------------------------
               5X          5Y          5Z          6X          6Y          6Z          7X          7Y          7Z          8X          8Y          8Z         13X         13Y         13Z         14X         14Y         14Z         15X         15Y         15Z         16X         16Y         16Z         21X         21Y         21Z         22X         22Y         22Z         23X         23Y         23Z         24X         24Y         24Z         29X         29Y         29Z         30X         30Y         30Z         31X         31Y         31Z         32X         32Y         32Z         37X         37Y         37Z         38X         38Y         38Z         39X         39Y         39Z         40X         40Y         40Z         45X         45Y         45Z         46X         46Y         46Z         47X         47Y         47Z         48X         48Y         48Z         53X         53Y         53Z         54X         54Y         54Z         55X         55Y         55Z         56X         56Y         56Z         61X         61Y         61Z         62X         62Y         62Z         63X         63Y         63Z         64X         64Y         64Z 
  5X   -10.710335    0.000016   -0.000283    0.625161    1.545790    0.009552   -0.444195    0.000074    0.000086    0.639203   -0.000019    1.557581   -0.005341   -0.000004   -0.000017    0.625172   -1.545785    0.009552   -0.444185   -0.000072    0.000082   -0.004684   -0.000009   -0.037532    1.556992    0.000003   -0.000003    0.624942   -1.545599   -0.009537    0.256979   -0.000003   -0.000001    0.638991   -0.000001   -1.557407    0.059033    0.000000    0.000037    0.624973    1.545604   -0.009534    0.256980    0.000003    0.000005   -0.004697   -0.000002    0.037553    1.412972    0.000008    0.000375   -0.031487   -0.256123   -0.257560    1.311302    0.000350   -0.000000    1.006241   -0.000000   -0.029755    0.142839   -0.000009   -0.000014   -0.031482    0.256147   -0.257558    1.311322   -0.000362    0.000005    0.042797   -0.000005   -0.005514   -0.600054    0.000007   -0.000011   -0.031552    0.256195    0.257632   -0.577248   -0.000018    0.000007    1.005396   -0.000002    0.029774   -0.158989   -0.000002   -0.000001   -0.031557   -0.256192    0.257636   -0.577249    0.000008   -0.000000    0.042814    0.000001    0.005510
  5Y     0.001022  -10.707976   -0.000457    1.545262    0.625040    0.009622    0.000612    0.639294    1.557611   -0.000717   -0.444863   -0.000213    0.000227    1.558393   -0.000002   -1.546563    0.625902   -0.009557    0.000577    0.639161   -1.557471    0.000009    0.257107   -0.000108    0.000919   -0.005849   -0.000011   -1.546696    0.626023    0.009578   -0.000029   -0.004689   -0.037386   -0.000793   -0.444869    0.000306   -0.000156    0.059303    0.000004    1.545165    0.624976   -0.009600   -0.000032   -0.004689    0.037407   -0.000014    0.257112    0.000127   -0.000007    1.412520    0.000221   -0.255898   -0.031145   -0.257354    0.000020    1.005228   -0.029750   -0.000230    1.310799    0.000027   -0.000029   -0.600515    0.000018    0.256170   -0.031425    0.257800   -0.000011    1.004756    0.029752    0.000065   -0.577717    0.000012    0.000192    0.142877   -0.000011    0.256100   -0.031399   -0.257772    0.000364    0.042914   -0.005478   -0.000659    1.310789   -0.000039    0.000110   -0.159118    0.000002   -0.255960   -0.031178    0.257393    0.000358    0.042946    0.005491    0.000037   -0.577723    0.000006
  5Z     0.000042   -0.000692  -10.250188   -0.010059   -0.010314   -0.831323    0.000016    1.560335    0.189721    1.561019    0.001067    0.189940    0.000001   -0.000686   -0.391908   -0.009005    0.008740   -0.831378    0.000005   -1.561746    0.190182   -0.007117   -0.000168   -0.270796   -0.000001    0.000637   -0.391944    0.010049   -0.010321   -0.831325    0.000001   -0.007165   -0.271061   -1.561026    0.001079    0.189957    0.000001   -0.000315   -0.454903    0.009013    0.008740   -0.831384   -0.000002    0.007054   -0.270523    0.007113   -0.000167   -0.270796    0.000003    0.000549    1.041580   -0.330029   -0.330142    0.320271    0.000000    0.010326    1.688776    0.009836    0.000361    1.688630    0.000001    0.000501    0.352285   -0.329812    0.329708    0.320153   -0.000009   -0.009392    1.688739    0.003780    0.000638    0.498935   -0.000004   -0.000013    0.352350    0.330024   -0.330137    0.320273    0.000006    0.003704    0.498901   -0.009834    0.000375    1.688587   -0.000002    0.000176    0.260425    0.329809    0.329697    0.320154    0.000001   -0.003891    0.498920   -0.003777    0.000636    0.498928
  6X     0.625597    1.545932   -0.008436  -10.710052    0.000080    0.000912    0.639367   -0.000526   -1.558302   -0.444992   -0.000072   -0.000717    0.625569   -1.545892   -0.008753   -0.005283    0.000014    0.001260   -0.004778    0.000562    0.036821   -0.444684    0.000058    0.000095    0.625736   -1.546048    0.010491    1.556311   -0.000032    0.001289    0.639532   -0.000286    1.557706    0.257523   -0.000006   -0.000794    0.625698    1.546023    0.009791    0.059157    0.000026    0.001267   -0.004762    0.000285   -0.037565    0.257230   -0.000006    0.000023   -0.031681   -0.256398    0.258788    1.413263   -0.000042   -0.000037    1.005619    0.000036    0.030177    1.311330   -0.000362    0.000333   -0.031684    0.256402    0.257635    0.143075    0.000038   -0.000437    0.042717   -0.000053    0.005825    1.311276    0.000352   -0.000092   -0.031606    0.256327   -0.258266   -0.600504   -0.000041   -0.000438    1.006602   -0.000002   -0.029839   -0.578007   -0.000011    0.000337   -0.031603   -0.256333   -0.258012   -0.159090    0.000036   -0.000421    0.042706   -0.000008   -0.005555   -0.577949    0.000008   -0.000086
  6Y     1.545471    0.625384   -0.009645    0.002336  -10.708244   -0.000424   -0.000684   -0.444978    0.000243    0.000433    0.639450   -1.557555   -1.546616    0.626168    0.009593    0.000148    1.557921    0.000007   -0.000035    0.257073    0.000124    0.000449    0.639467    1.557605   -1.546581    0.626145   -0.009577    0.000966   -0.005807   -0.000003   -0.000689   -0.444973   -0.000227   -0.000036   -0.004711    0.037425    1.545490    0.625351    0.009642   -0.000062    0.059371    0.000014   -0.000017    0.257074   -0.000094   -0.000033   -0.004711   -0.037400   -0.255992   -0.031201    0.257664   -0.000040    1.412654    0.000033   -0.000441    1.310836   -0.000009   -0.000135    1.005252    0.029780    0.256206   -0.031453   -0.257871    0.000036   -0.600759    0.000018    0.000022   -0.578128   -0.000002   -0.000103    1.005355   -0.029759    0.256215   -0.031448    0.257888   -0.000057    0.143003   -0.000000   -0.000348    1.310837    0.000020    0.000026    0.042888    0.005478   -0.255977   -0.031210   -0.257644    0.000043   -0.159196    0.000007    0.000047   -0.578113    0.000022    0.000033    0.042880   -0.005462
  6Z     0.009037    0.008815   -0.831614   -0.000013   -0.000912  -10.249356   -1.561082    0.001047    0.190013    0.000001   -1.561756    0.190221    0.010078   -0.010294   -0.831536   -0.000001   -0.000689   -0.392048    0.007085   -0.000171   -0.270834   -0.000002    1.560450    0.189802   -0.009031    0.008809   -0.831611   -0.000008    0.000621   -0.392061    1.561098    0.001041    0.190021    0.000000    0.007028   -0.270567   -0.010070   -0.010291   -0.831533    0.000002   -0.000326   -0.454938   -0.007085   -0.000174   -0.270835    0.000000   -0.007128   -0.271094    0.329858    0.329767    0.320173   -0.000003    0.000530    1.041514   -0.009741    0.000344    1.688635   -0.000003   -0.009306    1.688774    0.330069   -0.330169    0.320290   -0.000000    0.000444    0.352274   -0.003795    0.000591    0.499036   -0.000011    0.010246    1.688830   -0.329862    0.329772    0.320169    0.000001    0.000008    0.352324    0.009755    0.000331    1.688637   -0.000001   -0.003884    0.499031   -0.330070   -0.330167    0.320295    0.000000    0.000174    0.260397    0.003791    0.000595    0.499040    0.000002    0.003724    0.499018
  7X    -0.444818    0.000014    0.001134    0.639608    0.000012   -1.564343   -9.606975    0.000018   -0.001050    0.650069   -1.631842   -0.153583   -0.444819   -0.000021    0.001134   -0.004779    0.000000    0.007866   -0.000761    0.000006    0.000161    0.650074    1.631832   -0.153574    0.256862    0.000025    0.001157    0.639547   -0.000000    1.561610    1.651481    0.000005   -0.000758    0.650016    1.632653    0.153004    0.256863   -0.000025    0.001162   -0.004772   -0.000001   -0.006862    0.060393   -0.000004    0.000154    0.650009   -1.632659    0.153008    1.497691   -0.000112   -0.000323    1.052659   -0.000004    0.181445    1.321084    0.000007    0.000271   -0.027897    0.267304    0.263359    1.497687    0.000100   -0.000317    0.051163    0.000002    0.000227    0.109183    0.000000   -0.000054   -0.027899   -0.267305    0.263359   -0.715469    0.000008   -0.000329    1.052298    0.000009   -0.180931   -0.596782    0.000002    0.000398   -0.027911   -0.267361   -0.263064   -0.715464   -0.000017   -0.000324    0.051184   -0.000004   -0.000380   -0.124504   -0.000000   -0.000068   -0.027909    0.267361   -0.263054
  7Y     0.000429    0.639800    1.561060   -0.000568   -0.445384    0.000512    0.000766   -9.610609   -0.000320   -1.632989    0.650480    0.152933    0.000447    0.639815   -1.561080    0.000006    0.257113    0.000101    0.000480    1.653924    0.000010    1.631744    0.649606   -0.152657   -0.000051   -0.004669   -0.006880   -0.000599   -0.445393   -0.000541   -0.000022   -0.001367    0.000025    1.631699    0.649555    0.152679   -0.000058   -0.004665    0.006891   -0.000008    0.257115   -0.000095   -0.000215    0.060997    0.000009   -1.633074    0.650555   -0.152906    0.000184    1.051831   -0.180640    0.000437    1.497271   -0.000006   -0.000012    1.320610   -0.000089    0.267241   -0.027713   -0.262875    0.000182    1.052112    0.180681   -0.000106   -0.715360    0.000068   -0.000035   -0.597024    0.000002   -0.267208   -0.027490    0.262675    0.000259    0.051348   -0.000359    0.000190    1.497276    0.000048    0.000325    0.109166    0.000018   -0.267227   -0.027502   -0.262664    0.000260    0.051328    0.000388   -0.000101   -0.715355   -0.000055    0.000069   -0.124461    0.000012    0.267220   -0.027694    0.262878
  7Z    -0.000003    1.556461    0.185512   -1.557370    0.001065    0.186348    0.000026    0.001918   -7.630872    0.153297   -0.153590   -0.660676   -0.000003   -1.558295    0.187135    0.037349   -0.000223   -0.274785    0.000000   -0.001313   -0.171570    0.152345    0.152042   -0.660547   -0.000000   -0.037424   -0.275071    1.557369    0.001065    0.186349   -0.000001    0.000857   -0.171568   -0.153297   -0.153578   -0.660677   -0.000002    0.037272   -0.274499   -0.037354   -0.000223   -0.274789   -0.000001   -0.000550   -0.238074   -0.152345    0.152039   -0.660553   -0.000006    0.059269    1.633553   -0.058247    0.000480    1.633374   -0.000005    0.000733    1.591159    0.238640   -0.238945    0.313725   -0.000004   -0.057363    1.633502   -0.063032    0.000311    0.247156   -0.000001    0.000695    0.406460    0.238527    0.238287    0.314053    0.000001    0.062832    0.247038    0.058265    0.000483    1.633372    0.000006   -0.000036    0.406487   -0.238642   -0.238942    0.313723    0.000001   -0.063237    0.247273    0.063034    0.000306    0.247159   -0.000001    0.000043    0.243050   -0.238531    0.238279    0.314057
  8X     0.639806   -0.000282    1.560272   -0.444691    0.000009   -0.000678    0.650212   -1.632415    0.153587   -9.612026   -0.000070    0.000632   -0.004686    0.000283   -0.007680   -0.444804   -0.000004    0.000021    0.650209    1.632421    0.153508   -0.001113   -0.000039    0.001028    0.639812   -0.000172   -1.560925    0.256695    0.000003   -0.000672    0.650248    1.632454   -0.152197    1.652513    0.000036    0.001015   -0.004681    0.000173    0.007035    0.256804   -0.000005    0.000027    0.650245   -1.632447   -0.152749    0.060787   -0.000034    0.001025    1.052513    0.000019   -0.180821    1.497312    0.000058   -0.000131   -0.027750    0.267305   -0.262571    1.320991    0.000023   -0.000206    0.051308   -0.000015   -0.000558    1.497355   -0.000049   -0.000124   -0.027750   -0.267303   -0.263181    0.109206   -0.000012   -0.000135    1.052629   -0.000016    0.180571   -0.715392    0.000000   -0.000131   -0.027729   -0.267286    0.262675   -0.596831    0.000024   -0.000143    0.051305    0.000018    0.000275   -0.715424   -0.000000   -0.000128   -0.027726    0.267287    0.262816   -0.124438   -0.000011   -0.000145
  8Y    -0.000463   -0.445406   -0.000409    0.000251    0.639880   -1.561070   -1.633035    0.650557   -0.152918    0.001340   -9.610954   -0.000507   -0.000014    0.257091   -0.000048    0.000229    0.639908    1.561089    1.631795    0.649698    0.152670    0.000329    1.653774    0.000002   -0.000454   -0.445396    0.000417   -0.000023   -0.004660    0.006893    1.631778    0.649676   -0.152634    0.000341   -0.001366    0.000020    0.000004    0.257088    0.000056   -0.000020   -0.004663   -0.006884   -1.632952    0.650523    0.152932   -0.000106    0.060984    0.000013    0.000216    1.497171    0.000074   -0.000049    1.052110    0.180683    0.267282   -0.027715    0.262929   -0.000218    1.320550   -0.000002   -0.000090   -0.715382   -0.000018   -0.000072    1.052040   -0.180659   -0.267110   -0.027434   -0.262591   -0.000018   -0.597061    0.000001    0.000269    1.497213   -0.000038    0.000167    0.051336    0.000394   -0.267104   -0.027441    0.262610    0.000100    0.109180    0.000016   -0.000080   -0.715390    0.000040    0.000154    0.051340   -0.000354    0.267299   -0.027713   -0.262912    0.000060   -0.124456    0.000010
  8Z     1.557424    0.001140    0.186443    0.000003   -1.558286    0.187185   -0.152459    0.152179   -0.660520   -0.000014    0.001627   -7.631374   -0.037392   -0.000260   -0.274808   -0.000006    1.556576    0.185616   -0.153278   -0.153559   -0.660551    0.000003   -0.001731   -0.171453   -1.557419    0.001158    0.186435    0.000001    0.037300   -0.274483    0.152453    0.152169   -0.660520   -0.000003    0.000922   -0.171507    0.037397   -0.000263   -0.274811    0.000007   -0.037484   -0.275136    0.153278   -0.153555   -0.660551    0.000000   -0.000594   -0.237969    0.058218    0.000582    1.633509    0.000002   -0.057214    1.633636   -0.238553    0.238326    0.314057    0.000004    0.000860    1.591186    0.063001    0.000252    0.247296    0.000011    0.059338    1.633738   -0.238785   -0.239080    0.313605   -0.000003    0.000600    0.406430   -0.058229    0.000590    1.633506   -0.000011   -0.063228    0.247400    0.238554    0.238314    0.314068   -0.000005    0.000026    0.406453   -0.063004    0.000237    0.247303    0.000006    0.062757    0.247181    0.238786   -0.239077    0.313596    0.000005    0.000027    0.243047
 13X    -0.005838   -0.000005   -0.000952    0.625760   -1.545579    0.008675   -0.444619    0.000018    0.001655   -0.004708    0.000031   -0.034262  -10.712697    0.000013   -0.000299    0.625760    1.545594    0.008678   -0.444622   -0.000025    0.001653    0.639535    0.000002    1.558575    0.059644    0.000002   -0.000946    0.625657    1.546186   -0.009608    0.257089    0.000061    0.001620   -0.004702   -0.000001    0.038561    1.557132   -0.000006    0.000007    0.625658   -1.546185   -0.009601    0.257092   -0.000061    0.001622    0.639428   -0.000002   -1.557042    0.143002    0.000003   -0.000268   -0.031497    0.256273   -0.258106    1.311362   -0.000175   -0.000467    0.042770    0.000000   -0.005236    1.413127   -0.000009   -0.000056   -0.031494   -0.256275   -0.258107    1.311358    0.000182   -0.000470    1.006234   -0.000004   -0.030355   -0.159095    0.000000   -0.000267   -0.031532   -0.256262    0.257582   -0.577747    0.000088   -0.000470    0.042800    0.000003    0.004921   -0.600410   -0.000002   -0.000312   -0.031536    0.256261    0.257578   -0.577743   -0.000085   -0.000471    1.005523   -0.000001    0.029542
 13Y     0.000390    1.557259    0.000004   -1.546605    0.626157   -0.009568    0.000867    0.639320   -1.557510   -0.000031    0.256980   -0.000184    0.000364  -10.710322   -0.000327    1.545019    0.624952    0.009677    0.000896    0.639378    1.557558   -0.000776   -0.444601   -0.000240   -0.000226    0.059250    0.000008    1.544964    0.624911   -0.009682   -0.000144   -0.004692    0.037432   -0.000028    0.256982    0.000184    0.000122   -0.005691    0.000002   -1.546686    0.626219    0.009584   -0.000144   -0.004694   -0.037429   -0.000797   -0.444625    0.000277   -0.000092   -0.600180   -0.000000    0.256145   -0.031510    0.257874    0.000170    1.005244    0.029737    0.000012   -0.577416    0.000003    0.000123    1.412832    0.000142   -0.256161   -0.031392   -0.257322    0.000168    1.005682   -0.029704    0.000080    1.311103    0.000074    0.000177   -0.159066   -0.000000   -0.256176   -0.031397    0.257330    0.000699    0.042885    0.005494   -0.000007   -0.577407    0.000014    0.000482    0.142844   -0.000007    0.256130   -0.031501   -0.257865    0.000698    0.042859   -0.005482   -0.000273    1.311099   -0.000051
 13Z    -0.000001   -0.000325   -0.392211   -0.009093    0.008906   -0.831850   -0.000008   -1.561786    0.190290   -0.007035   -0.000150   -0.270815   -0.000019   -0.000693  -10.249842   -0.010033   -0.010217   -0.831758    0.000009    1.560452    0.189839    1.561118    0.000932    0.190075   -0.000001   -0.000260   -0.454976    0.009099    0.008912   -0.831850   -0.000001    0.006990   -0.270592    0.007036   -0.000153   -0.270814   -0.000003    0.000472   -0.392223    0.010048   -0.010231   -0.831755    0.000002   -0.007067   -0.271025   -1.561124    0.000917    0.190072   -0.000001    0.000424    0.352339   -0.329917    0.329839    0.320196    0.000003   -0.009424    1.688693    0.003803    0.000572    0.499058    0.000003    0.000376    1.041311   -0.329991   -0.330076    0.320449    0.000002    0.009942    1.688774    0.009657    0.000172    1.688571   -0.000001    0.000168    0.260407    0.329918    0.329841    0.320193    0.000002   -0.003843    0.499047   -0.003802    0.000574    0.499056    0.000001   -0.000015    0.352379    0.329988   -0.330072    0.320452   -0.000003    0.003787    0.499052   -0.009653    0.000167    1.688576
 14X     0.625744   -1.545968   -0.009002   -0.005479    0.000031    0.000946   -0.004746    0.000555    0.036759   -0.444723    0.000003    0.000098    0.625799    1.545976   -0.008556  -10.710815    0.000092    0.000551    0.639514   -0.000517   -1.558338   -0.445072   -0.000031   -0.000713    0.625856    1.546020    0.009742    0.059183    0.000041    0.000935   -0.004732    0.000212   -0.037427    0.257139   -0.000012    0.000065    0.625858   -1.546044    0.010256    1.556234   -0.000046    0.000962    0.639605   -0.000205    1.557706    0.257498   -0.000001   -0.000757   -0.031650    0.256344    0.257678    0.143082   -0.000050   -0.000248    0.042752   -0.000002    0.005622    1.311224    0.000142   -0.000080   -0.031651   -0.256342    0.258457    1.413300    0.000049   -0.000072    1.005786   -0.000003    0.029961    1.311232   -0.000156    0.000119   -0.031608   -0.256321   -0.257883   -0.159161   -0.000053   -0.000245    0.042759    0.000000   -0.005561   -0.577798   -0.000011   -0.000082   -0.031616    0.256311   -0.258057   -0.600463    0.000049   -0.000266    1.006311   -0.000002   -0.029821   -0.577811   -0.000001    0.000115
 14Y    -1.546705    0.626270    0.009587    0.000447    1.556568   -0.000005   -0.000040    0.256905    0.000210    0.000961    0.639478    1.557602    1.545039    0.624997   -0.009685    0.000061  -10.710527   -0.000335   -0.000768   -0.444472    0.000273    0.000930    0.639413   -1.557546    1.545049    0.625009    0.009688   -0.000268    0.059127    0.000008   -0.000036    0.256904   -0.000204   -0.000168   -0.004724   -0.037494   -1.546637    0.626205   -0.009585   -0.000070   -0.005515   -0.000001   -0.000748   -0.444445   -0.000231   -0.000167   -0.004725    0.037505    0.256164   -0.031565   -0.257911   -0.000066   -0.600231    0.000006   -0.000036   -0.577474    0.000013    0.000267    1.005969   -0.029710   -0.256303   -0.031536    0.257456    0.000196    1.413002    0.000158   -0.000137    1.311302   -0.000051    0.000264    1.005543    0.029732   -0.256283   -0.031536   -0.257456    0.000170   -0.159083    0.000002   -0.000014   -0.577491   -0.000002    0.000673    0.042786   -0.005484    0.256192   -0.031578    0.257934    0.000473    0.142901   -0.000003    0.000197    1.311316    0.000065    0.000689    0.042801    0.005494
 14Z     0.010029   -0.010207   -0.831840   -0.000002   -0.000146   -0.392277    0.007018   -0.000141   -0.270819    0.000017    1.560475    0.189902    0.009106    0.008928   -0.831937   -0.000012   -0.000304  -10.249379   -1.561164    0.000844    0.190128   -0.000003   -1.561831    0.190347   -0.010037   -0.010209   -0.831842    0.000002   -0.000228   -0.454995   -0.007022   -0.000140   -0.270817    0.000006   -0.007044   -0.271004   -0.009103    0.008918   -0.831935    0.000005    0.000387   -0.392283    1.561143    0.000861    0.190132   -0.000002    0.006980   -0.270618    0.329947   -0.330035    0.320501    0.000001    0.000420    0.352337   -0.003808    0.000565    0.499062    0.000005    0.009843    1.688688    0.329944    0.329864    0.320176    0.000011    0.000288    1.041357   -0.009621    0.000069    1.688492    0.000009   -0.009460    1.688609   -0.329962   -0.330046    0.320494    0.000000    0.000164    0.260397    0.003805    0.000560    0.499062    0.000001    0.003809    0.499060   -0.329948    0.329867    0.320182    0.000003   -0.000034    0.352380    0.009620    0.000080    1.688498    0.000010   -0.003826    0.499054
 15X    -0.445152   -0.000015    0.000698   -0.004673    0.000002    0.007341   -0.001116   -0.000014    0.000237    0.650004    1.631787   -0.153513   -0.445161    0.000034    0.000712    0.639637   -0.000012   -1.561991   -9.609179   -0.000045   -0.001051    0.649998   -1.631755   -0.153505    0.257007   -0.000033    0.000720   -0.004675    0.000003   -0.006809    0.060710    0.000005    0.000227    0.649962   -1.632406    0.152975    0.257007    0.000033    0.000732    0.639581   -0.000011    1.561284    1.652643   -0.000034   -0.000783    0.649956    1.632470    0.152992    1.497340    0.000255   -0.000084    0.051293    0.000010    0.000425    0.109127   -0.000000   -0.000101   -0.027717   -0.267218    0.262790    1.497341   -0.000209   -0.000082    1.052206   -0.000016    0.181143    1.320931   -0.000008   -0.000144   -0.027715    0.267213    0.262807   -0.715169    0.000157   -0.000091    0.051312    0.000004   -0.000310   -0.124458    0.000002   -0.000114   -0.027736    0.267209   -0.262964   -0.715159   -0.000135   -0.000085    1.051984   -0.000035   -0.180824   -0.596657   -0.000002   -0.000033   -0.027736   -0.267208   -0.262947
 15Y     0.000206    0.640037   -1.561299    0.000009    0.257171    0.000038    0.000263    1.654506    0.000005    1.631889    0.649750   -0.152668    0.000192    0.640025    1.561275   -0.000448   -0.445708    0.000384    0.001317   -9.610212   -0.000362   -1.633036    0.650554    0.152957   -0.000009   -0.004661    0.006808   -0.000008    0.257174   -0.000028   -0.000067    0.061157    0.000008   -1.633084    0.650620   -0.152921   -0.000007   -0.004667   -0.006796   -0.000475   -0.445703   -0.000397    0.000543   -0.001606    0.000022    1.631856    0.649730    0.152692   -0.000062    1.051832    0.180641   -0.000072   -0.715491    0.000038   -0.000019   -0.597308    0.000004   -0.267114   -0.027390    0.262597   -0.000067    1.051650   -0.180590    0.000208    1.497138   -0.000039   -0.000195    1.320517   -0.000042    0.267335   -0.027679   -0.262905    0.000153    0.051356    0.000352   -0.000077   -0.715511   -0.000019    0.000052   -0.124484    0.000013    0.267314   -0.027676    0.262918    0.000144    0.051356   -0.000315    0.000093    1.497121    0.000081    0.000088    0.109210    0.000011   -0.267132   -0.027399   -0.262585
 15Z    -0.000006   -1.558381    0.187363    0.037306   -0.000226   -0.274829   -0.000009   -0.001432   -0.171873    0.152369    0.152087   -0.661052   -0.000003    1.556658    0.185779   -1.557510    0.001033    0.186601   -0.000026    0.001445   -7.631271    0.153263   -0.153520   -0.661124    0.000000    0.037238   -0.274537   -0.037306   -0.000225   -0.274822    0.000005   -0.000552   -0.238281   -0.152352    0.152083   -0.661053    0.000003   -0.037378   -0.275115    1.557511    0.001035    0.186606   -0.000002    0.000879   -0.171888   -0.153250   -0.153529   -0.661121   -0.000005   -0.057275    1.633696   -0.062984    0.000258    0.247282   -0.000006    0.000618    0.406529    0.238571    0.238345    0.314105   -0.000007    0.059355    1.633775   -0.058263    0.000508    1.633569   -0.000000    0.000767    1.591083    0.238729   -0.239015    0.313718    0.000001   -0.063192    0.247385    0.062993    0.000267    0.247279    0.000005    0.000035    0.243084   -0.238568    0.238347    0.314113    0.000002    0.062767    0.247167    0.058262    0.000510    1.633573    0.000001    0.000008    0.406544   -0.238732   -0.239017    0.313729
 16X    -0.004718    0.000420   -0.007946   -0.444674   -0.000037    0.000015    0.650157    1.632454    0.154089   -0.000981    0.000057    0.001695    0.639750   -0.000418    1.560017   -0.444528    0.000022   -0.000961    0.650139   -1.632422    0.152626   -9.611705   -0.000171    0.001567   -0.004705    0.000276    0.007072    0.256716   -0.000010    0.000045    0.650217   -1.632489   -0.152493    0.060698    0.000053    0.001677    0.639845   -0.000275   -1.560995    0.256571    0.000006   -0.000929    0.650212    1.632508   -0.151745    1.652455   -0.000069    0.001680    0.051266    0.000070   -0.000486    1.497587   -0.000151   -0.000236   -0.027893   -0.267459   -0.263609    0.109453    0.000138   -0.000440    1.052432   -0.000075   -0.180596    1.497626    0.000162   -0.000040   -0.027891    0.267457   -0.262550    1.321503   -0.000113   -0.000623    0.051250    0.000002    0.000128   -0.715478   -0.000008   -0.000261   -0.027827    0.267414    0.262846   -0.124627    0.000138   -0.000445    1.052865   -0.000023    0.180390   -0.715530    0.000019   -0.000062   -0.027841   -0.267417    0.262507   -0.597137   -0.000122   -0.000457
 16Y    -0.000017    0.257181   -0.000048    0.000253    0.640071    1.561338    1.631861    0.649724    0.152709    0.000318    1.654685    0.000005   -0.000486   -0.445759   -0.000419    0.000262    0.640100   -1.561367   -1.633137    0.650624   -0.152924    0.001335   -9.609862   -0.000298   -0.000001    0.257178    0.000059   -0.000027   -0.004682   -0.006783   -1.633081    0.650562    0.152958   -0.000100    0.061212    0.000001   -0.000457   -0.445764    0.000402   -0.000032   -0.004674    0.006799    1.631915    0.649748   -0.152692    0.000434   -0.001639    0.000025   -0.000093   -0.715592   -0.000018   -0.000011    1.051604   -0.180549   -0.267193   -0.027423   -0.262622   -0.000001   -0.597468    0.000003    0.000149    1.497094    0.000102   -0.000004    1.051845    0.180595    0.267315   -0.027624    0.262899   -0.000134    1.320492   -0.000067   -0.000088   -0.715575    0.000031    0.000134    0.051342   -0.000303    0.267333   -0.027637   -0.262890    0.000049   -0.124501    0.000013    0.000325    1.497100   -0.000053    0.000142    0.051339    0.000328   -0.267170   -0.027401    0.262637    0.000066    0.109245    0.000011
 16Z    -0.037368   -0.000240   -0.274740   -0.000001    1.556543    0.185652   -0.153356   -0.153624   -0.660305   -0.000008   -0.001533   -0.171248    1.557394    0.001052    0.186486   -0.000001   -1.558253    0.187246   -0.152468    0.152194   -0.660260   -0.000021    0.001674   -7.634006    0.037365   -0.000241   -0.274742    0.000003   -0.037443   -0.275040    0.153371   -0.153630   -0.660312    0.000002   -0.000573   -0.237709   -1.557392    0.001059    0.186479    0.000000    0.037286   -0.274441    0.152478    0.152191   -0.660260   -0.000001    0.000899   -0.171265    0.063047    0.000252    0.247029   -0.000009    0.059481    1.633559   -0.238794   -0.239074    0.313484   -0.000001    0.000599    0.406267    0.058355    0.000535    1.633348   -0.000002   -0.057323    1.633463   -0.238586    0.238360    0.313908   -0.000004    0.000806    1.591338   -0.063042    0.000248    0.247028   -0.000004    0.062815    0.246914    0.238787   -0.239075    0.313481    0.000001    0.000034    0.243010   -0.058336    0.000533    1.633344   -0.000003   -0.063267    0.247134    0.238588    0.238357    0.313902   -0.000000    0.000010    0.406294
 21X     1.556268    0.000002    0.000010    0.625744   -1.546363   -0.010512    0.256947   -0.000051    0.001562    0.639518    0.000004   -1.556461    0.058781   -0.000001   -0.000909    0.625748    1.546354   -0.010501    0.256947    0.000048    0.001559   -0.004738   -0.000012    0.039841  -10.712032    0.000024   -0.000286    0.625841    1.545798    0.009628   -0.444482   -0.000019    0.001584    0.639616    0.000008    1.557880   -0.005000    0.000004   -0.000917    0.625849   -1.545809    0.009625   -0.444487    0.000009    0.001585   -0.004717    0.000004   -0.036478   -0.600499   -0.000001   -0.000246   -0.031561    0.256261    0.257672   -0.578044   -0.000053   -0.000408    1.005784    0.000001    0.029250   -0.159155    0.000001   -0.000252   -0.031562   -0.256259    0.257668   -0.578036    0.000051   -0.000408    0.042757    0.000007    0.005728    1.413180   -0.000002   -0.000031   -0.031550   -0.256302   -0.258179    1.311579    0.000138   -0.000409    1.006412    0.000002   -0.029957    0.143086   -0.000002   -0.000250   -0.031550    0.256296   -0.258174    1.311573   -0.000137   -0.000403    0.042749   -0.000002   -0.005980
[...]
      0.000000  2.136528  7.500000            0           0           0  
      2.136528  4.273057  7.500000            0           0           0  
      0.000000  4.273057  9.636528            0           0           0  
      2.136528  2.136528  9.636528            0           0           0  
      0.000000  2.136528 11.784330    -0.058807   -0.063643    0.099065  
      2.136528  4.273057 11.784330     0.005447   -0.070147   -0.188254  
      0.000000  4.273057 13.909342     0.047972    0.056522   -0.221171  
      2.136528  2.136528 13.909342    -0.004356    0.052159    0.035575  
      4.273057  6.409585  7.500000            0           0           0  
      6.409585  0.000000  7.500000            0           0           0  
      4.273057  0.000000  9.636528            0           0           0  
      6.409585  6.409585  9.636528            0           0           0  
      4.273057  6.409585 11.784330     0.058825    0.063608   -0.099056  
      6.409585  0.000000 11.784330    -0.005323    0.070145    0.188226  
      4.273057  0.000000 13.909342    -0.047864   -0.056480    0.221132  
      6.409585  6.409585 13.909342     0.004397   -0.052170   -0.035563  
      4.273057  2.136528  7.500000            0           0           0  
      6.409585  4.273057  7.500000            0           0           0  
      4.273057  4.273057  9.636528            0           0           0  
      6.409585  2.136528  9.636528            0           0           0  
      4.273057  2.136528 11.784330     0.058755   -0.063622    0.115637  
      6.409585  4.273057 11.784330    -0.005379   -0.070023   -0.007762  
      4.273057  4.273057 13.909342    -0.047688    0.056537   -0.186565  
      6.409585  2.136528 13.909342     0.004461    0.052493    0.411057  
      0.000000  6.409585  9.636528            0           0           0  
      2.136528  0.000000  9.636528            0           0           0  
      0.000000  0.000000  7.500000            0           0           0  
      2.136528  6.409585  7.500000            0           0           0  
      0.000000  6.409585 13.948130     0.020550   -0.022538   -0.158402  
      2.136528  0.000000 13.948130    -0.001874   -0.024383    0.010754  
      0.000000  0.000000 11.778681    -0.024849    0.029763    0.062307  
      2.136528  6.409585 11.778681     0.002379    0.026926   -0.137335  
      0.000000  2.136528  9.636528            0           0           0  
      2.136528  4.273057  9.636528            0           0           0  
      0.000000  4.273057  7.500000            0           0           0  
      2.136528  2.136528  7.500000            0           0           0  
      0.000000  2.136528 13.948130     0.020508    0.022440    0.135720  
      2.136528  4.273057 13.948130    -0.001838    0.024315   -0.257906  
      0.000000  4.273057 11.778681    -0.024866   -0.029754   -0.073815  
      2.136528  2.136528 11.778681     0.002240   -0.027042    0.011945  
      4.273057  6.409585  9.636528            0           0           0  
      6.409585  0.000000  9.636528            0           0           0  
      4.273057  0.000000  7.500000            0           0           0  
      6.409585  6.409585  7.500000            0           0           0  
      4.273057  6.409585 13.948130    -0.020512   -0.022459   -0.135667  
      6.409585  0.000000 13.948130     0.001893   -0.024316    0.257925  
      4.273057  0.000000 11.778681     0.024929    0.029771    0.073829  
      6.409585  6.409585 11.778681    -0.002209    0.027007   -0.011938  
      4.273057  2.136528  9.636528            0           0           0  
      6.409585  4.273057  9.636528            0           0           0  
      4.273057  4.273057  7.500000            0           0           0  
      6.409585  2.136528  7.500000            0           0           0  
      4.273057  2.136528 13.948130    -0.020571    0.022528    0.158445  
      6.409585  4.273057 13.948130     0.001916    0.024369   -0.010701  
      4.273057  4.273057 11.778681     0.024891   -0.029767   -0.062294  
      6.409585  2.136528 11.778681    -0.002328   -0.026921    0.137313  

  94 f  =    3.856211 THz    24.229290 2PiTHz  128.629360 cm-1    15.948001 meV
             X         Y         Z           dx          dy          dz
      0.000000  6.409585  7.500000            0           0           0  
      2.136528  0.000000  7.500000            0           0           0  
      0.000000  0.000000  9.636528            0           0           0  
      2.136528  6.409585  9.636528            0           0           0  
      0.000000  6.409585 11.784330    -0.001694   -0.000253    0.143357  
      2.136528  0.000000 11.784330    -0.001596   -0.000308    0.143327  
      0.000000  0.000000 13.909342    -0.002833   -0.000239    0.238546  
      2.136528  6.409585 13.909342    -0.002867   -0.000240    0.238576  
      0.000000  2.136528  7.500000            0           0           0  
      2.136528  4.273057  7.500000            0           0           0  
      0.000000  4.273057  9.636528            0           0           0  
      2.136528  2.136528  9.636528            0           0           0  
      0.000000  2.136528 11.784330    -0.001583   -0.000277    0.143310  
      2.136528  4.273057 11.784330    -0.001611   -0.000223    0.143328  
      0.000000  4.273057 13.909342    -0.002840   -0.000261    0.238504  
      2.136528  2.136528 13.909342    -0.002808   -0.000249    0.238370  
      4.273057  6.409585  7.500000            0           0           0  
      6.409585  0.000000  7.500000            0           0           0  
      4.273057  0.000000  9.636528            0           0           0  
      6.409585  6.409585  9.636528            0           0           0  
      4.273057  6.409585 11.784330    -0.001587   -0.000261    0.143318  
      6.409585  0.000000 11.784330    -0.001587   -0.000262    0.143314  
      4.273057  0.000000 13.909342    -0.002833   -0.000260    0.238417  
      6.409585  6.409585 13.909342    -0.002846   -0.000249    0.238560  
      4.273057  2.136528  7.500000            0           0           0  
      6.409585  4.273057  7.500000            0           0           0  
      4.273057  4.273057  9.636528            0           0           0  
      6.409585  2.136528  9.636528            0           0           0  
      4.273057  2.136528 11.784330    -0.001589   -0.000266    0.143277  
      6.409585  4.273057 11.784330    -0.001587   -0.000281    0.143304  
      4.273057  4.273057 13.909342    -0.002828   -0.000252    0.238420  
      6.409585  2.136528 13.909342    -0.002829   -0.000258    0.238486  
      0.000000  6.409585  9.636528            0           0           0  
      2.136528  0.000000  9.636528            0           0           0  
      0.000000  0.000000  7.500000            0           0           0  
      2.136528  6.409585  7.500000            0           0           0  
      0.000000  6.409585 13.948130    -0.002115   -0.000267    0.185634  
      2.136528  0.000000 13.948130    -0.001738   -0.000289    0.185553  
      0.000000  0.000000 11.778681    -0.000843   -0.000169    0.114635  
      2.136528  6.409585 11.778681    -0.001180   -0.000157    0.114653  
      0.000000  2.136528  9.636528            0           0           0  
      2.136528  4.273057  9.636528            0           0           0  
      0.000000  4.273057  7.500000            0           0           0  
      2.136528  2.136528  7.500000            0           0           0  
      0.000000  2.136528 13.948130    -0.002014   -0.000270    0.185565  
      2.136528  4.273057 13.948130    -0.001727   -0.000256    0.185543  
      0.000000  4.273057 11.778681    -0.000860   -0.000150    0.114629  
      2.136528  2.136528 11.778681    -0.001160   -0.000147    0.114607  
      4.273057  6.409585  9.636528            0           0           0  
      6.409585  0.000000  9.636528            0           0           0  
      4.273057  0.000000  7.500000            0           0           0  
      6.409585  6.409585  7.500000            0           0           0  
      4.273057  6.409585 13.948130    -0.002032   -0.000267    0.185569  
      6.409585  0.000000 13.948130    -0.001733   -0.000257    0.185562  
      4.273057  0.000000 11.778681    -0.000840   -0.000166    0.114604  
      6.409585  6.409585 11.778681    -0.001171   -0.000149    0.114630  
      4.273057  2.136528  9.636528            0           0           0  
      6.409585  4.273057  9.636528            0           0           0  
      4.273057  4.273057  7.500000            0           0           0  
      6.409585  2.136528  7.500000            0           0           0  
      4.273057  2.136528 13.948130    -0.002039   -0.000273    0.185497  
      6.409585  4.273057 13.948130    -0.001732   -0.000289    0.185543  
      4.273057  4.273057 11.778681    -0.000839   -0.000157    0.114599  
      6.409585  2.136528 11.778681    -0.001146   -0.000166    0.114605  

  95 f  =    2.846323 THz    17.883973 2PiTHz   94.943108 cm-1    11.771440 meV
             X         Y         Z           dx          dy          dz
      0.000000  6.409585  7.500000            0           0           0  
      2.136528  0.000000  7.500000            0           0           0  
      0.000000  0.000000  9.636528            0           0           0  
      2.136528  6.409585  9.636528            0           0           0  
      0.000000  6.409585 11.784330     0.117863   -0.092635    0.001095  
      2.136528  0.000000 11.784330     0.117884   -0.092630    0.000981  
      0.000000  0.000000 13.909342     0.186409   -0.146430    0.002042  
      2.136528  6.409585 13.909342     0.186249   -0.146436    0.002117  
      0.000000  2.136528  7.500000            0           0           0  
      2.136528  4.273057  7.500000            0           0           0  
      0.000000  4.273057  9.636528            0           0           0  
      2.136528  2.136528  9.636528            0           0           0  
      0.000000  2.136528 11.784330     0.117872   -0.092621    0.001054  
      2.136528  4.273057 11.784330     0.117891   -0.092617    0.001020  
      0.000000  4.273057 13.909342     0.186346   -0.146450    0.002021  
      2.136528  2.136528 13.909342     0.186289   -0.146439    0.002070  
      4.273057  6.409585  7.500000            0           0           0  
      6.409585  0.000000  7.500000            0           0           0  
      4.273057  0.000000  9.636528            0           0           0  
      6.409585  6.409585  9.636528            0           0           0  
      4.273057  6.409585 11.784330     0.117860   -0.092631    0.001076  
      6.409585  0.000000 11.784330     0.117914   -0.092651    0.000963  
      4.273057  0.000000 13.909342     0.186393   -0.146436    0.001995  
      6.409585  6.409585 13.909342     0.186264   -0.146441    0.002066  
      4.273057  2.136528  7.500000            0           0           0  
      6.409585  4.273057  7.500000            0           0           0  
      4.273057  4.273057  9.636528            0           0           0  
      6.409585  2.136528  9.636528            0           0           0  
      4.273057  2.136528 11.784330     0.117849   -0.092636    0.001027  
      6.409585  4.273057 11.784330     0.117892   -0.092619    0.000957  
      4.273057  4.273057 13.909342     0.186385   -0.146431    0.002001  
      6.409585  2.136528 13.909342     0.186266   -0.146461    0.001918  
      0.000000  6.409585  9.636528            0           0           0  
      2.136528  0.000000  9.636528            0           0           0  
      0.000000  0.000000  7.500000            0           0           0  
      2.136528  6.409585  7.500000            0           0           0  
      0.000000  6.409585 13.948130     0.142980   -0.112303    0.001384  
      2.136528  0.000000 13.948130     0.142961   -0.112303    0.001431  
      0.000000  0.000000 11.778681     0.090668   -0.071249    0.000807  
      2.136528  6.409585 11.778681     0.090709   -0.071244    0.000820  
      0.000000  2.136528  9.636528            0           0           0  
      2.136528  4.273057  9.636528            0           0           0  
      0.000000  4.273057  7.500000            0           0           0  
      2.136528  2.136528  7.500000            0           0           0  
      0.000000  2.136528 13.948130     0.142992   -0.112307    0.001324  
      2.136528  4.273057 13.948130     0.142949   -0.112308    0.001423  
      0.000000  4.273057 11.778681     0.090658   -0.071240    0.000807  
      2.136528  2.136528 11.778681     0.090708   -0.071245    0.000807  
      4.273057  6.409585  9.636528            0           0           0  
      6.409585  0.000000  9.636528            0           0           0  
      4.273057  0.000000  7.500000            0           0           0  
      6.409585  6.409585  7.500000            0           0           0  
      4.273057  6.409585 13.948130     0.143002   -0.112305    0.001357  
      6.409585  0.000000 13.948130     0.142963   -0.112305    0.001367  
      4.273057  0.000000 11.778681     0.090664   -0.071251    0.000794  
      6.409585  6.409585 11.778681     0.090719   -0.071247    0.000799  
      4.273057  2.136528  9.636528            0           0           0  
      6.409585  4.273057  9.636528            0           0           0  
      4.273057  4.273057  7.500000            0           0           0  
      6.409585  2.136528  7.500000            0           0           0  
      4.273057  2.136528 13.948130     0.143011   -0.112307    0.001308  
      6.409585  4.273057 13.948130     0.142950   -0.112309    0.001365  
      4.273057  4.273057 11.778681     0.090662   -0.071244    0.000789  
      6.409585  2.136528 11.778681     0.090715   -0.071247    0.000759  

  96 f  =    2.842819 THz    17.861959 2PiTHz   94.826236 cm-1    11.756950 meV
             X         Y         Z           dx          dy          dz
      0.000000  6.409585  7.500000            0           0           0  
      2.136528  0.000000  7.500000            0           0           0  
      0.000000  0.000000  9.636528            0           0           0  
      2.136528  6.409585  9.636528            0           0           0  
      0.000000  6.409585 11.784330    -0.092575   -0.117868   -0.001085  
      2.136528  0.000000 11.784330    -0.092599   -0.117857   -0.001006  
      0.000000  0.000000 13.909342    -0.146513   -0.186335   -0.002017  
      2.136528  6.409585 13.909342    -0.146394   -0.186332   -0.002052  
      0.000000  2.136528  7.500000            0           0           0  
      2.136528  4.273057  7.500000            0           0           0  
      0.000000  4.273057  9.636528            0           0           0  
      2.136528  2.136528  9.636528            0           0           0  
      0.000000  2.136528 11.784330    -0.092562   -0.117835   -0.001064  
      2.136528  4.273057 11.784330    -0.092565   -0.117844   -0.001024  
      0.000000  4.273057 13.909342    -0.146463   -0.186352   -0.001985  
      2.136528  2.136528 13.909342    -0.146418   -0.186355   -0.002037  
      4.273057  6.409585  7.500000            0           0           0  
      6.409585  0.000000  7.500000            0           0           0  
      4.273057  0.000000  9.636528            0           0           0  
      6.409585  6.409585  9.636528            0           0           0  
      4.273057  6.409585 11.784330    -0.092550   -0.117856   -0.001072  
      6.409585  0.000000 11.784330    -0.092597   -0.117843   -0.000987  
      4.273057  0.000000 13.909342    -0.146488   -0.186334   -0.001965  
      6.409585  6.409585 13.909342    -0.146390   -0.186373   -0.002016  
      4.273057  2.136528  7.500000            0           0           0  
      6.409585  4.273057  7.500000            0           0           0  
      4.273057  4.273057  9.636528            0           0           0  
      6.409585  2.136528  9.636528            0           0           0  
      4.273057  2.136528 11.784330    -0.092560   -0.117866   -0.001033  
      6.409585  4.273057 11.784330    -0.092582   -0.117883   -0.000983  
      4.273057  4.273057 13.909342    -0.146499   -0.186342   -0.001964  
      6.409585  2.136528 13.909342    -0.146404   -0.186348   -0.001916  
      0.000000  6.409585  9.636528            0           0           0  
      2.136528  0.000000  9.636528            0           0           0  
      0.000000  0.000000  7.500000            0           0           0  
      2.136528  6.409585  7.500000            0           0           0  
      0.000000  6.409585 13.948130    -0.112342   -0.142997   -0.001429  
      2.136528  0.000000 13.948130    -0.112323   -0.143000   -0.001457  
      0.000000  0.000000 11.778681    -0.071207   -0.090676   -0.000827  
      2.136528  6.409585 11.778681    -0.071234   -0.090685   -0.000835  
      0.000000  2.136528  9.636528            0           0           0  
      2.136528  4.273057  9.636528            0           0           0  
      0.000000  4.273057  7.500000            0           0           0  
      2.136528  2.136528  7.500000            0           0           0  
      0.000000  2.136528 13.948130    -0.112336   -0.142987   -0.001384  
      2.136528  4.273057 13.948130    -0.112306   -0.142989   -0.001450  
      0.000000  4.273057 11.778681    -0.071202   -0.090688   -0.000825  
      2.136528  2.136528 11.778681    -0.071237   -0.090683   -0.000822  
      4.273057  6.409585  9.636528            0           0           0  
      6.409585  0.000000  9.636528            0           0           0  
      4.273057  0.000000  7.500000            0           0           0  
      6.409585  6.409585  7.500000            0           0           0  
      4.273057  6.409585 13.948130    -0.112341   -0.142993   -0.001392  
      6.409585  0.000000 13.948130    -0.112310   -0.142988   -0.001409  
      4.273057  0.000000 11.778681    -0.071205   -0.090686   -0.000810  
      6.409585  6.409585 11.778681    -0.071238   -0.090687   -0.000818  
      4.273057  2.136528  9.636528            0           0           0  
      6.409585  4.273057  9.636528            0           0           0  
      4.273057  4.273057  7.500000            0           0           0  
      6.409585  2.136528  7.500000            0           0           0  
      4.273057  2.136528 13.948130    -0.112359   -0.142997   -0.001358  
      6.409585  4.273057 13.948130    -0.112307   -0.143000   -0.001411  
      4.273057  4.273057 11.778681    -0.071198   -0.090688   -0.000810  
      6.409585  2.136528 11.778681    -0.071240   -0.090686   -0.000788  

 Finite differences POTIM=   1.0000000000000000E-002
     LOOP+:  cpu time    174.0779: real time    174.3885
    4ORBIT:  cpu time      0.0000: real time      0.0000

 total amount of memory used by VASP MPI-rank0    58713. kBytes
=======================================================================

   base      :      30000. kBytes
   nonl-proj :      12353. kBytes
   fftplans  :       5011. kBytes
   grid      :       7379. kBytes
   one-center:         64. kBytes
   wavefun   :       3906. kBytes

  
  
 General timing and accounting informations for this job:
 ========================================================
  
                  Total CPU time used (sec):    35310.379
                            User time (sec):    35290.145
                          System time (sec):       20.235
                         Elapsed time (sec):    35373.929
  
                   Maximum memory used (kb):      738724.
                   Average memory used (kb):          N/A
  
                          Minor page faults:        57493
                          Major page faults:         1350
                 Voluntary context switches:        63153
