 vasp.6.3.0 20Jan22 (build Aug 21 2024 11:13:42) complex                         
 executed on        HPECrayEX_GCC date 2024.11.26  23:16:17
 running  512 mpi-ranks, with    1 threads/rank
 distrk:  each k-point on  512 cores,    1 groups
 distr:  one band on NCORE=  16 cores,   32 groups


--------------------------------------------------------------------------------------------------------


 INCAR:
   SYSTEM = TiO2
   ISMEAR = 0
   SIGMA = 0.05
   EDIFF = 1E-4
   ALGO = ALL
   ISTART = 0
   IBRION = -1
   NSW = 0
   ISYM = 0
   ISIF = 2
   EDIFFG = -0.01
   DIPOL = 0.5 0.5 0.5
   IDIPOL = 3
   LDIPOL = .TRUE.
   GGA = PE
   IVDW = 21
   ENCUT = 600
   PREC = Accurate
   LASPH = .TRUE.
   LREAL = .FALSE.
   ISPIN = 1
   NELM = 200
   NELMIN = 8
   NCORE = 16
   KPAR = 1
   LWAVE = .FALSE.
   LCHARG = .FALSE.

 POTCAR:    PAW_PBE N 08Apr2002                   
 POTCAR:    PAW_PBE H 15Jun2001                   
 POTCAR:    PAW_PBE N 08Apr2002                   
   SHA256 =  e053789ff3a61a86a1b75d8a110fcc91f86041011e7b0817c7c99e4e8a6349d7 N/POTCAR              
   COPYR  = (c) Copyright 08Apr2002 Georg Kresse                                                    
   COPYR  = This file is part of the software VASP. Any use, copying, and all other rights are regul
   COPYR  = If you do not have a valid VASP license, you may not use, copy or distribute this file. 
   VRHFIN =N: s2p3                                                                                  
   LEXCH  = PE                                                                                      
   EATOM  =   264.5486 eV,   19.4438 Ry                                                             
                                                                                                    
   TITEL  = PAW_PBE N 08Apr2002                                                                     
   LULTRA =        F    use ultrasoft PP ?                                                          
   IUNSCR =        1    unscreen: 0-lin 1-nonlin 2-no                                               
   RPACOR =    1.200    partial core radius                                                         
   POMASS =   14.001; ZVAL   =    5.000    mass and valenz                                          
   RCORE  =    1.500    outmost cutoff radius                                                       
   RWIGS  =    1.400; RWIGS  =    0.741    wigner-seitz radius (au A)                               
   ENMAX  =  400.000; ENMIN  =  300.000 eV                                                          
   ICORE  =        2    local potential                                                             
   LCOR   =        T    correct aug charges                                                         
   LPAW   =        T    paw PP                                                                      
   EAUG   =  627.112                                                                                
   DEXC   =    0.000                                                                                
   RMAX   =    1.529    core radius for proj-oper                                                   
   RAUG   =    1.300    factor for augmentation sphere                                              
   RDEP   =    1.514    radius for radial grids                                                     
   RDEPT  =    1.338    core radius for aug-charge                                                  
                                                                                                    
   Atomic configuration                                                                             
    4 entries                                                                                       
     n  l   j            E        occ.                                                              
     1  0  0.50      -384.7179   2.0000                                                             
     2  0  0.50       -18.5828   2.0000                                                             
     2  1  0.50        -7.0898   3.0000                                                             
     3  2  1.50        -6.8029   0.0000                                                             
   Description                                                                                      
     l       E           TYP  RCUT    TYP  RCUT                                                     
     0    -18.5828119     23  1.200                                                                 
     0    -13.5018863     23  1.200                                                                 
     1     -7.0897853     23  1.500                                                                 
     1      9.5240782     23  1.500                                                                 
     2     -6.8029130      7  1.500                                                                 
  local pseudopotential read in
  partial core-charges read in
  partial kinetic energy density read in
  atomic valenz-charges read in
  non local Contribution for L=           0  read in
    real space projection operators read in
  non local Contribution for L=           0  read in
    real space projection operators read in
  non local Contribution for L=           1  read in
    real space projection operators read in
  non local Contribution for L=           1  read in
    real space projection operators read in
    PAW grid and wavefunctions read in

   number of l-projection  operators is LMAX  =           4
   number of lm-projection operators is LMMAX =           8

 POTCAR:    PAW_PBE H 15Jun2001                   
   SHA256 =  030f79b5d3ab3cf0e668861823c8fb652ff669f3e15e46930bd03bfd63a607b6 H/POTCAR              
   COPYR  = (c) Copyright 15Jun2001 Georg Kresse                                                    
   COPYR  = This file is part of the software VASP. Any use, copying, and all other rights are regul
   COPYR  = If you do not have a valid VASP license, you may not use, copy or distribute this file. 
   VRHFIN =H: ultrasoft test                                                                        
   LEXCH  = PE                                                                                      
   EATOM  =    12.4884 eV,    0.9179 Ry                                                             
                                                                                                    
   TITEL  = PAW_PBE H 15Jun2001                                                                     
   LULTRA =        F    use ultrasoft PP ?                                                          
   IUNSCR =        0    unscreen: 0-lin 1-nonlin 2-no                                               
   RPACOR =    0.000    partial core radius                                                         
   POMASS =    1.000; ZVAL   =    1.000    mass and valenz                                          
   RCORE  =    1.100    outmost cutoff radius                                                       
   RWIGS  =    0.700; RWIGS  =    0.370    wigner-seitz radius (au A)                               
   ENMAX  =  250.000; ENMIN  =  200.000 eV                                                          
   RCLOC  =    0.701    cutoff for local pot                                                        
   LCOR   =        T    correct aug charges                                                         
   LPAW   =        T    paw PP                                                                      
   EAUG   =  400.000                                                                                
   RMAX   =    1.123    core radius for proj-oper                                                   
   RAUG   =    1.200    factor for augmentation sphere                                              
   RDEP   =    1.112    radius for radial grids                                                     
   RDEPT  =    0.926    core radius for aug-charge                                                  
                                                                                                    
   Atomic configuration                                                                             
    2 entries                                                                                       
     n  l   j            E        occ.                                                              
     1  0  0.50        -6.4927   1.0000                                                             
     2  1  0.50        -3.4015   0.0000                                                             
   Description                                                                                      
     l       E           TYP  RCUT    TYP  RCUT                                                     
     0     -6.4927494     23  1.100                                                                 
     0      6.8029130     23  1.100                                                                 
     1     -4.0817478     23  1.100                                                                 
  local pseudopotential read in
  atomic valenz-charges read in
  non local Contribution for L=           0  read in
    real space projection operators read in
  non local Contribution for L=           0  read in
    real space projection operators read in
  non local Contribution for L=           1  read in
    real space projection operators read in
    PAW grid and wavefunctions read in

   number of l-projection  operators is LMAX  =           3
   number of lm-projection operators is LMMAX =           5

  PAW_PBE N 08Apr2002                   :
 energy of atom  1       EATOM= -264.5486
 kinetic energy error for atom=    0.0103 (will be added to EATOM!!)
  PAW_PBE H 15Jun2001                   :
 energy of atom  2       EATOM=  -12.4884
 kinetic energy error for atom=    0.0004 (will be added to EATOM!!)


 POSCAR:  N  H
  positions in direct lattice
  No initial velocities read in
 exchange correlation table for  LEXCH =        8
   RHO(1)=    0.500       N(1)  =     2000
   RHO(2)=  100.500       N(2)  =     4000



--------------------------------------------------------------------------------------------------------


 ion  position               nearest neighbor table
   1  0.610  0.500  0.779-   2 1.02   3 1.02   4 1.02
   2  0.547  0.500  0.807-   1 1.02
   3  0.669  0.428  0.781-   1 1.02
   4  0.669  0.572  0.781-   1 1.02


IMPORTANT INFORMATION: All symmetrisations will be switched off!
NOSYMM: (Re-)initialisation of all symmetry stuff for point group C_1.


----------------------------------------------------------------------------------------

                                     Primitive cell                                     

  volume of cell :    3293.6692

  direct lattice vectors                    reciprocal lattice vectors
    10.375787277  0.000000000  0.000000000     0.096378229 -0.000000000  0.000000000
     0.000000000 11.367280081  0.000000000     0.000000000  0.087971792  0.000000000
     0.000000000  0.000000000 27.925590326     0.000000000  0.000000000  0.035809449

  length of vectors
    10.375787277 11.367280081 27.925590326     0.096378229  0.087971792  0.035809449

  position of ions in fractional coordinates (direct lattice)
     0.610076767  0.499999992  0.778674619
     0.547175469  0.500000000  0.806779984
     0.668582729  0.427785430  0.781403145
     0.668582736  0.572214575  0.781403148

  ion indices of the primitive-cell ions
   primitive index   ion index
                 1           1
                 2           2
                 3           3
                 4           4

----------------------------------------------------------------------------------------



 KPOINTS: pymatgen v2020.8.13 with grid density = 

Automatic generation of k-mesh.
 Grid dimensions read from file:
 generate k-points for:    3    3    1

 Generating k-lattice:

  Cartesian coordinates                     Fractional coordinates (reciprocal lattice)
     0.032126076 -0.000000000  0.000000000     0.333333333 -0.000000000  0.000000000
     0.000000000  0.029323931  0.000000000     0.000000000  0.333333333  0.000000000
     0.000000000  0.000000000  0.035809449     0.000000000  0.000000000  1.000000000

  Length of vectors
     0.032126076  0.029323931  0.035809449

  Shift w.r.t. Gamma in fractional coordinates (k-lattice)
     0.000000000  0.000000000  0.000000000

 
 Subroutine IBZKPT returns following result:
 ===========================================
 
 Found      5 irreducible k-points:
 
 Following reciprocal coordinates:
            Coordinates               Weight
  0.000000  0.000000  0.000000      1.000000
  0.333333  0.000000  0.000000      2.000000
  0.000000  0.333333  0.000000      2.000000
  0.333333  0.333333  0.000000      2.000000
  0.333333 -0.333333  0.000000      2.000000
 
 Following cartesian coordinates:
            Coordinates               Weight
  0.000000  0.000000  0.000000      1.000000
  0.032126  0.000000  0.000000      2.000000
  0.000000  0.029324  0.000000      2.000000
  0.032126  0.029324  0.000000      2.000000
  0.032126 -0.029324  0.000000      2.000000
 


--------------------------------------------------------------------------------------------------------




 Dimension of arrays:
   k-points           NKPTS =      5   k-points in BZ     NKDIM =      5   number of bands    NBANDS=     32
   number of dos      NEDOS =    301   number of ions     NIONS =      4
   non local maximal  LDIM  =      4   non local SUM 2l+1 LMDIM =      8
   total plane-waves  NPLWV = ******
   max r-space proj   IRMAX =      1   max aug-charges    IRDMAX=   6947
   dimension x,y,z NGX =    84 NGY =   96 NGZ =  224
   dimension x,y,z NGXF=   168 NGYF=  192 NGZF=  448
   support grid    NGXF=   168 NGYF=  192 NGZF=  448
   ions per type =               1   3
   NGX,Y,Z   is equivalent  to a cutoff of  13.46, 14.04, 13.34 a.u.
   NGXF,Y,Z  is equivalent  to a cutoff of  26.92, 28.08, 26.67 a.u.

 SYSTEM =  TiO2                                    
 POSCAR =   N  H                                   

--------------------------------------------------------------------------------------------------------


  energy-cutoff  :      600.00
  volume of cell :     3293.67
      direct lattice vectors                 reciprocal lattice vectors
    10.375787277  0.000000000  0.000000000     0.096378229 -0.000000000  0.000000000
     0.000000000 11.367280081  0.000000000     0.000000000  0.087971792  0.000000000
     0.000000000  0.000000000 27.925590326     0.000000000  0.000000000  0.035809449

  length of vectors
    10.375787277 11.367280081 27.925590326     0.096378229  0.087971792  0.035809449



 k-points in units of 2pi/SCALE and weight: pymatgen v2020.8.13 with grid density = 
   0.00000000  0.00000000  0.00000000       0.111
   0.03212608  0.00000000  0.00000000       0.222
   0.00000000  0.02932393  0.00000000       0.222
   0.03212608  0.02932393  0.00000000       0.222
   0.03212608 -0.02932393  0.00000000       0.222

 k-points in reciprocal lattice and weights: pymatgen v2020.8.13 with grid density = 
   0.00000000  0.00000000  0.00000000       0.111
   0.33333333  0.00000000  0.00000000       0.222
   0.00000000  0.33333333  0.00000000       0.222
   0.33333333  0.33333333  0.00000000       0.222
   0.33333333 -0.33333333  0.00000000       0.222

 position of ions in fractional coordinates (direct lattice) 
   0.61007677  0.49999999  0.77867462
   0.54717547  0.50000000  0.80677998
   0.66858273  0.42778543  0.78140315
   0.66858274  0.57221457  0.78140315

 position of ions in cartesian coordinates  (Angst):
   6.33002676  5.68363995 21.74494840
   5.67737627  5.68364003 22.52980731
   6.93707217  4.86275680 21.82114411
   6.93707224  6.50452334 21.82114418



--------------------------------------------------------------------------------------------------------

--------------------------------------- Iteration      FINAL  ---------------------------------------


--------------------OUTCAR has been truncated-------------------------


--------------------OUTCAR has been truncated-------------------------


--------------------OUTCAR has been truncated-------------------------


--------------------OUTCAR has been truncated-------------------------


--------------------OUTCAR has been truncated-------------------------


--------------------OUTCAR has been truncated-------------------------


--------------------OUTCAR has been truncated-------------------------


--------------------OUTCAR has been truncated-------------------------


--------------------OUTCAR has been truncated-------------------------


--------------------OUTCAR has been truncated-------------------------


  Hirshfeld charges:
            ion         q(e)     
   ------------------------------
      1     N          -0.293
      2     H           0.098
      3     H           0.098
      4     H           0.098

  Hirshfeld-I charges:
            ion         q(e)        dq(e)    
   ------------------------------------------
      1     N          -1.103     -0.427E-04
      2     H           0.370      0.144E-04
      3     H           0.367      0.142E-04
      4     H           0.367      0.142E-04

   Hirshfeld-I converged in  27 cycles. Convergence criterion |dq|< 0.500E-04 e

  Atomic reference data used in the T-S method for vdW correction:
            C6at              R0at           ALPHAat      REFSTATE
            (au)              (au)            (au)                
   ---------------------------------------------------------------
   N          24.200          3.345          7.400         0
   H           6.500          3.099          4.500         0

  Tkatchenko/Scheffler method for vdW energy calculation
  ---------------------------------------------------------------------------------------------

  Parameters of vdW forcefield:
            C6ts              R0ts           ALPHAts        RELVOL
            (au)              (au)            (au)                
   ---------------------------------------------------------------
   N          43.291          3.685          9.897          1.33749441
   H           0.757          2.166          1.536          0.34134012
   H           0.764          2.169          1.543          0.34278734
   H           0.764          2.169          1.543          0.34278684

  vdW correction parametrized for the method pbe       

  IVDW =  21
  VDW_RADIUS =    50.000 A
  VDW_IDAMPF =  0
  VDW_S6 =     1.000
  VDW_SR =     0.950
  VDW_D =    20.000
  LVDW_ONECELL = F F F
  LVDW_SAMETYPE T T
  LVDW_EWALD = F

  Number of pair interactions contributing to vdW energy:    1584
  Edisp (eV):   -0.00063
    FORVDW:  cpu time     14.8876: real time     14.8939

  FORCE on cell =-STRESS in cart. coord.  units (eV):
  Direction    XX          YY          ZZ          XY          YZ          ZX
  --------------------------------------------------------------------------------------
  Alpha Z     0.07009     0.07009     0.07009
  Ewald     124.71398   130.26507   -68.31033    -0.00001     0.00001   -33.83504
  Hartree   200.04998   193.39341    42.92333    -0.00001    -0.00000    -6.45627
  E(xc)     -30.81677   -30.76967   -30.97251     0.00000     0.00000    -0.12053
  Local    -397.93765  -392.27707   -59.69913     0.00001     0.00001    30.64221
  n-local   -22.39735   -21.87573   -23.44529    -0.00000     0.00001    -0.87754
  augment     1.32482     1.18953     1.65623     0.00000    -0.00000     0.26854
  Kinetic   124.62762   119.79416   137.75643     0.00000    -0.00001    10.48132
  Fock        0.00000     0.00000     0.00000     0.00000     0.00000     0.00000
  vdW         0.00167     0.00213     0.00061     0.00000    -0.00000    -0.00110
  -------------------------------------------------------------------------------------
  Total      -0.36361    -0.20807    -0.02057    -0.00001     0.00000     0.10159
  in kB      -0.17687    -0.10121    -0.01001    -0.00000     0.00000     0.04942
  external pressure =       -0.10 kB  Pullay stress =        0.00 kB


 VOLUME and BASIS-vectors are now :
 -----------------------------------------------------------------------------
  energy-cutoff  :      600.00
  volume of cell :     3293.67
      direct lattice vectors                 reciprocal lattice vectors
    10.375787277  0.000000000  0.000000000     0.096378229 -0.000000000  0.000000000
     0.000000000 11.367280081  0.000000000     0.000000000  0.087971792  0.000000000
     0.000000000  0.000000000 27.925590326     0.000000000  0.000000000  0.035809449

  length of vectors
    10.375787277 11.367280081 27.925590326     0.096378229  0.087971792  0.035809449


 FORCES acting on ions:
    Electron-Ion                     Ewald-Force                    Non-Local-Force
 -----------------------------------------------------------------------------------------------
   0.232E+02 0.154E-04 0.391E+02   -.371E+02 0.168E-04 -.636E+02   0.141E+02 -.141E-04 0.243E+02
   0.471E+02 -.177E-05 -.525E+02   -.517E+02 0.574E-05 0.578E+02   0.477E+01 0.133E-05 -.536E+01
   -.404E+02 0.571E+02 -.248E+01   0.444E+02 -.627E+02 0.287E+01   -.416E+01 0.575E+01 -.314E+00
   -.404E+02 -.571E+02 -.248E+01   0.444E+02 0.627E+02 0.287E+01   -.416E+01 -.575E+01 -.314E+00
 -----------------------------------------------------------------------------------------------
   -.105E+02 0.891E-05 -.183E+02   0.000E+00 0.711E-14 0.711E-14   0.105E+02 -.133E-04 0.183E+02


 POSITION                                       TOTAL-FORCE (eV/Angst)
 -----------------------------------------------------------------------------------
      6.33003      5.68364     21.74495         0.176551      0.000019     -0.197508
      5.67738      5.68364     22.52981         0.163109      0.000006      0.019637
      6.93707      4.86276     21.82114        -0.169825      0.097601      0.088932
      6.93707      6.50452     21.82114        -0.169834     -0.097627      0.088939
 -----------------------------------------------------------------------------------
    total drift:                               -0.014701     -0.000004     -0.024452


--------------------------------------------------------------------------------------------------------



  FREE ENERGIE OF THE ION-ELECTRON SYSTEM (eV)
  ---------------------------------------------------
  free  energy   TOTEN  =       -19.54430248 eV

  energy  without entropy=      -19.54430248  energy(sigma->0) =      -19.54430248



--------------------------------------------------------------------------------------------------------


    POTLOK:  cpu time      0.1503: real time      0.1503


--------------------------------------------------------------------------------------------------------


     LOOP+:  cpu time     41.0293: real time     41.0770
    4ORBIT:  cpu time      0.0000: real time      0.0000

 total amount of memory used by VASP MPI-rank0    52949. kBytes
=======================================================================

   base      :      30000. kBytes
   nonl-proj :       4866. kBytes
   fftplans  :       6413. kBytes
   grid      :      10002. kBytes
   one-center:          3. kBytes
   wavefun   :       1665. kBytes

  
  
 General timing and accounting informations for this job:
 ========================================================
  
                  Total CPU time used (sec):       69.816
                            User time (sec):       69.224
                          System time (sec):        0.592
                         Elapsed time (sec):       83.688
  
                   Maximum memory used (kb):      184080.
                   Average memory used (kb):          N/A
  
                          Minor page faults:        22222
                          Major page faults:          589
                 Voluntary context switches:        10596
