 **********************************************************************
                          MRCC program system
 **********************************************************************
 
                              Written by
     Mihaly Kallay, Peter R. Nagy, David Mester, Laszlo Gyevi-Nagy,
        Jozsef Csoka, P. Bernat Szabo, Zoltan Rolik, Gyula Samu,
     Jozsef Csontos, Bence Hegely, Adam Ganyecz, Istvan Ladjanszki,
       Lorant Szegedy, Bence Ladoczki, Klara Petrov, Mate Farkas,
                    Pal D. Mezei, and Reka A. Horvath
 
        Department of Physical Chemistry and Materials Science
            Budapest University of Technology and Economics
                  Budapest P.O.Box 91, H-1521 Hungary
 
                              www.mrcc.hu
 
                      Release date: March 18, 2022

 ************************ 2023-02-05 13:15:05 *************************
 Executing minp...

 Reading input from MINP...
 
 Input file:
 
calc=FNO-CCSD(T)
verbosity=3
mem=220GB
unit=angs
scfiguess=small
scfalg=locfit1
ccmaxit=400
ccsdalg=dfdirect
ccsdthreads=4
ccsdmkl=thr
ptthreads=4
lnoepsv=1e-5
naf_cor=1e-2
basis=aug-cc-pVTZ
basis_sm=def2-SVP
dfbasis_scf=def2-QZVPP-RI-JK
dfbasis_cor=aug-cc-pVTZ-RI
unit=angs
geom=xyz
16

C    34.41670262    34.07107264    10.41543014
C    33.11117461    33.45680459    10.91530835
H    34.24160149    35.00442132     9.86225048
H    34.94674030    33.36940783     9.75379242
H    35.10002891    34.30603621    11.24227357
H    32.42643037    33.26105434    10.07939442
H    32.59136835    34.12756100    11.61262818
H    33.28915165    32.50678735    11.43686767
C    37.30146851    23.52004258    10.40841099
C    38.60118650    22.90620846    10.92356869
H    36.77622810    22.81583689     9.74571409
H    37.48350439    24.45098191     9.85291346
H    36.61044119    23.76067685    11.22702485
H    39.29502691    22.70956722    10.09551480
H    38.41694628    21.95668890    11.44396498
H    39.11330594    23.57775033    11.62587494

--------------------Output has been truncated-------------------------


--------------------Output has been truncated-------------------------


--------------------Output has been truncated-------------------------


--------------------Output has been truncated-------------------------


--------------------Output has been truncated-------------------------


--------------------Output has been truncated-------------------------


--------------------Output has been truncated-------------------------


--------------------Output has been truncated-------------------------


--------------------Output has been truncated-------------------------


--------------------Output has been truncated-------------------------


 
 Reference energy [au]:                       -79.259550567398
 DF-MP2 singlet pair energy [au]:              -0.300255000519
 DF-MP2 triplet pair energy [au]:              -0.075031556197
 DF-SCS-MP2 correlation energy [au]:           -0.385316519355
 DF-SCS-MP2 energy [au]:                      -79.644867086753
 DF-SOS-MP2 correlation energy [au]:           -0.390331500674
 DF-SOS-MP2 energy [au]:                      -79.649882068072
 DF-MP2 correlation energy [au]:               -0.375286556716
 DF-MP2 energy [au]:                          -79.634837124114

 Results in FNO basis:
 
 
 Reference energy [au]:                       -79.259550567398
 DF-MP2 singlet pair energy [au]:              -0.299084672303
 DF-MP2 triplet pair energy [au]:              -0.074925279510
 DF-SCS-MP2 correlation energy [au]:           -0.383876699934
 DF-SCS-MP2 energy [au]:                      -79.643427267332
 DF-SOS-MP2 correlation energy [au]:           -0.388810073994
 DF-SOS-MP2 energy [au]:                      -79.648360641392
 DF-MP2 correlation energy [au]:               -0.374009951813
 DF-MP2 energy [au]:                          -79.633560519211

 Results in NAF basis:
 
 
 Reference energy [au]:                       -79.259550567398
 DF-MP2 singlet pair energy [au]:              -0.299023943475
 DF-MP2 triplet pair energy [au]:              -0.074964323621
 DF-SCS-MP2 correlation energy [au]:           -0.383816840044
 DF-SCS-MP2 energy [au]:                      -79.643367407442
 DF-SOS-MP2 correlation energy [au]:           -0.388731126518
 DF-SOS-MP2 energy [au]:                      -79.648281693916
 DF-MP2 correlation energy [au]:               -0.373988267096
 DF-MP2 energy [au]:                          -79.633538834494

 ************************ 2023-02-05 13:15:50 *************************
 Executing ccsd...

 Allocation of 220.0 Gbytes of memory...

 Direct DF-CCSD(T) calculation
 
 Convergence criterion:  1.0E-06
 
 Number of occupied/virtual/auxiliary orbitals:     7   139   378
    421.21 MB is the minimal memory requirement for (T)
     94.89 MB is the minimal memory requirement for CCSD
 
 Reference energy [au]:             -79.259550567398
 T1 contribution [au]:                0.000000000000
 Same spin MP2 energy [au]:          -0.074944742384
 Opposite spin MP2 energy [au]:      -0.299054137066
 MP2 correlation energy [au]:        -0.373998879450
 Total MP2 energy [au]:             -79.633549446848
 MP2 correction [au]:                -0.001287677266
 
 
 CPU time [min]:     0.317                   Wall time [min]:     0.016
 
 Starting CCSD iterations...
 
                     Residual norm          Energy
 Iteration  1        0.170712363466      -79.654477988575
 Iteration  2        0.042453598597      -79.664042917057
 Iteration  3        0.011296586595      -79.664998969027
 Iteration  4        0.002548549336      -79.665007290382
 Iteration  5        0.000536666252      -79.665012496851
 Iteration  6        0.000152292243      -79.665015574443
 Iteration  7        0.000036257749      -79.665015359141
 Iteration  8        0.000009249122      -79.665015650775
 
 CCSD iteration has converged in  8 steps.
     1534.57 MB memory was utilized by CCSD
 
 T1 diagnostic:      7.816E-03            D1 diagnostic:      1.353E-02
 
 T1 contribution [au]:                                  0.000000000000
 PPL energy contribution [au]:                          0.102911716354
 Scaled PPL energy contribution [au]:                   0.103270469239

 OS-PPL energy contribution [au]:                       0.089961491176
 Scaled OS-PPL energy contribution [au]:                0.090332617344
 SS-PPL energy contribution [au]:                       0.012950225178
 Scaled SS-PPL energy contribution [au]:                0.012962053809

 Opposite spin CCSD energy [au]:                       -0.334284651807
 Same spin CCSD energy [au]:                           -0.071199097780
 CCSD correlation energy [au]:                         -0.405483749587
 CCSD correlation energy + MP2 correction [au]:        -0.406771426853
 CCSD correlation energy + MP2 + PPL corr. [au]:       -0.406412673968
 Total CCSD energy [au]:                              -79.665034316985
 Total CCSD energy + MP2 correction [au]:             -79.666321994251
 Total CCSD energy + MP2 + PPL corr. [au]:            -79.665963241366
 
 CPU time [min]:     2.767                   Wall time [min]:     0.088
 
 Calculation of (T) correction...
 
 
      388.93 MB memory is utilized for (T)

 0%       25%       50%       75%       100%
 |---------|---------|---------|---------| 
 
 (T) correction [au]:                                    -0.013958931710
 (T*) correction [au]:                                   -0.014006992279
 (T+) correction [au]:                                   -0.014006409781
 CCSD(T) correlation energy [au]:                        -0.419442681297
 CCSD(T) correlation energy + MP2 correction [au]:       -0.420730358563
 CCSD(T+) correlation en. + MP2 + PPL corr. [au]:        -0.420419083749
 Total CCSD(T) energy [au]:                             -79.678993248695
 Total CCSD(T) energy + MP2 correction [au]:            -79.680280925960
 Total CCSD(T+) energy + MP2 + PPL corr. [au]:          -79.679969651147
 
 CPU time [min]:     3.474                   Wall time [min]:     0.110
 
 ************************ 2023-02-05 13:15:57 *************************
                      Normal termination of mrcc.
 **********************************************************************
