 **********************************************************************
                          MRCC program system
 **********************************************************************
 
                              Written by
     Mihaly Kallay, Peter R. Nagy, David Mester, Laszlo Gyevi-Nagy,
        Jozsef Csoka, P. Bernat Szabo, Zoltan Rolik, Gyula Samu,
     Jozsef Csontos, Bence Hegely, Adam Ganyecz, Istvan Ladjanszki,
       Lorant Szegedy, Bence Ladoczki, Klara Petrov, Mate Farkas,
                    Pal D. Mezei, and Reka A. Horvath
 
        Department of Physical Chemistry and Materials Science
            Budapest University of Technology and Economics
                  Budapest P.O.Box 91, H-1521 Hungary
 
                              www.mrcc.hu
 
                      Release date: March 18, 2022

 ************************ 2022-12-22 22:05:47 *************************
 Executing minp...

 Reading input from MINP...
 
 Input file:
 
calc=DF-CCSD(T)
scftype=rhf
verbosity=3
mem=220GB
symm=off
unit=angs
scfiguess=small
scfmaxit=1000
scfalg=locfit1


ccmaxit=400
ccsdalg=dfdirect
ccsdthreads=4
ccsdmkl=thr
ptthreads=4

charge=0
core=4

basis=special
aug-cc-pVTZ
aug-cc-pVTZ
aug-cc-pVTZ
aug-cc-pVTZ
bse_CVTZ
aug-cc-pVTZ
aug-cc-pVTZ
aug-cc-pVTZ
aug-cc-pVTZ
aug-cc-pVTZ
bse_CVTZ
aug-cc-pVTZ
aug-cc-pVTZ
aug-cc-pVTZ

basis_sm=special
def2-SVP
def2-SVP
def2-SVP
def2-SVP
def2-SVP
def2-SVP
def2-SVP
def2-SVP
def2-SVP
def2-SVP
def2-SVP
def2-SVP
def2-SVP
def2-SVP

dfbasis_scf=special
def2-QZVPP-RI-JK
def2-QZVPP-RI-JK
def2-QZVPP-RI-JK
def2-QZVPP-RI-JK
def2-QZVPP-RI-JK
def2-QZVPP-RI-JK
def2-QZVPP-RI-JK
def2-QZVPP-RI-JK
def2-QZVPP-RI-JK
def2-QZVPP-RI-JK
def2-QZVPP-RI-JK
def2-QZVPP-RI-JK
def2-QZVPP-RI-JK
def2-QZVPP-RI-JK

dfbasis_cor=special
aug-cc-pVTZ-RI
aug-cc-pVTZ-RI
aug-cc-pVTZ-RI
aug-cc-pVTZ-RI
bse_CVTZ_mp2fit
aug-cc-pVTZ-RI
aug-cc-pVTZ-RI
aug-cc-pVTZ-RI
aug-cc-pVTZ-RI
aug-cc-pVTZ-RI
bse_CVTZ_mp2fit
aug-cc-pVTZ-RI
aug-cc-pVTZ-RI
aug-cc-pVTZ-RI

ecp=special
none
none
none
none
none
none
none
none
none
none
none
none
none
none

unit=angs
geom=xyz
14
N2 O2 Mg2 O8 ECP34
N     0.40650236773    0.40650324635    2.19318971406
N     1.75262562702    1.75262590322    2.19072651035
O     0.18283757344    0.18283994956    3.33197172865
O     1.97892907824    1.97893016918    3.32848152495
Mg    0.00000000000    0.00000000000   -0.00676672264
O    -2.10248244384    0.01668631229   -0.01474577407
O     0.01668627297   -2.10248229978   -0.01474572177
O     0.02054188635    0.02054198437   -2.14933684354
O     0.00321845804    2.14387700438    0.00000000000
O     2.14387696187    0.00321862452   -0.00000019877
Mg    2.14720169601    2.14720178681   -0.00912889998
O     2.12598938745    2.12598952190   -2.14991480714
O     2.13019163308    4.24941744989   -0.01605723604
O     4.24941735741    2.13019178644   -0.01605724959

ghost=serialno
5-14

 
 
 Checking keyword combinations...
 
 Keywords:
 
 active=none
--------------------Output has been truncated-------------------------


--------------------Output has been truncated-------------------------


--------------------Output has been truncated-------------------------


--------------------Output has been truncated-------------------------


--------------------Output has been truncated-------------------------


--------------------Output has been truncated-------------------------


--------------------Output has been truncated-------------------------


--------------------Output has been truncated-------------------------


--------------------Output has been truncated-------------------------


--------------------Output has been truncated-------------------------


 ************************ 2022-12-22 22:08:19 *************************
 Executing ccsd...

 Allocation of 220.0 Gbytes of memory...

 Direct DF-CCSD(T) calculation
 
 Convergence criterion:  1.0E-06
 
 Number of occupied/virtual/auxiliary orbitals:    11   655  1624
  42453.36 MB is the minimal memory requirement for (T)
   6627.97 MB is the minimal memory requirement for CCSD
 
 Reference energy [au]:            -258.497988794288
 T1 contribution [au]:                0.000000000000
 Same spin MP2 energy [au]:          -0.238896080697
 Opposite spin MP2 energy [au]:      -0.678915699753
 MP2 correlation energy [au]:        -0.917811780450
 Total MP2 energy [au]:            -259.415800574738
 
 
 CPU time [min]:     1.949                   Wall time [min]:     0.577
 
 Starting CCSD iterations...
 
                     Residual norm          Energy
 Iteration  1        0.363709854082     -259.348631651827
 Iteration  2        0.147753872034     -259.385261802098
 Iteration  3        0.043783018695     -259.398139944948
 Iteration  4        0.018546398485     -259.396816027605
 Iteration  5        0.005381924038     -259.396924550574
 Iteration  6        0.001670273021     -259.396991693071
 Iteration  7        0.000754432741     -259.396938704895
 Iteration  8        0.000245406901     -259.396933711393
 Iteration  9        0.000097551685     -259.396935612977
 Iteration 10        0.000037879225     -259.396934530178
 Iteration 11        0.000015434016     -259.396933568319
 Iteration 12        0.000005386725     -259.396933797633
 
 CCSD iteration has converged in 12 steps.
   225268.22 MB memory was utilized by CCSD
 
 T1 diagnostic:      2.121E-02            D1 diagnostic:      6.903E-02
 
 T1 contribution [au]:                                  0.000000000000
 Opposite spin CCSD energy [au]:                       -0.702693280136
 Same spin CCSD energy [au]:                           -0.196251723209
 CCSD correlation energy [au]:                         -0.898945003345
 Total CCSD energy [au]:                             -259.396933797633
 
 CPU time [min]:  2928.944                   Wall time [min]:    89.786
 
 Calculation of (T) correction...
 
 
    47340.30 MB memory is utilized for (T)

 0%       25%       50%       75%       100%
 |---------|---------|---------|---------| 
 
 (T) correction [au]:                                    -0.056399539652
 CCSD(T) correlation energy [au]:                        -0.955344542997
 Total CCSD(T) energy [au]:                            -259.453333337285
 
 CPU time [min]:  3477.611                   Wall time [min]:   107.754
 
 ************************ 2022-12-22 23:56:05 *************************
                      Normal termination of mrcc.
 **********************************************************************
