 **********************************************************************
                          MRCC program system
 **********************************************************************
 
                              Written by
     Mihaly Kallay, Peter R. Nagy, David Mester, Laszlo Gyevi-Nagy,
        Jozsef Csoka, P. Bernat Szabo, Zoltan Rolik, Gyula Samu,
     Jozsef Csontos, Bence Hegely, Adam Ganyecz, Istvan Ladjanszki,
       Lorant Szegedy, Bence Ladoczki, Klara Petrov, Mate Farkas,
                    Pal D. Mezei, and Reka A. Horvath
 
        Department of Physical Chemistry and Materials Science
            Budapest University of Technology and Economics
                  Budapest P.O.Box 91, H-1521 Hungary
 
                              www.mrcc.hu
 
                      Release date: March 18, 2022

 ************************ 2023-02-07 16:11:40 *************************
 Executing minp...

 Reading input from MINP...
 
 Input file:
 
calc=LNO-CCSD(T)
scftype=rhf
verbosity=3
mem=220GB
symm=off
unit=angs
scfiguess=small
scfmaxit=1000
scfalg=locfit1


lcorthr=tight
bpedo=0.99999
ccmaxit=400
usedisk=0
ccsdalg=dfdirect
ccsdthreads=4
ccsdmkl=thr
ptthreads=4

charge=0
core=4

basis=special
aug-cc-pVTZ
aug-cc-pVTZ
aug-cc-pVTZ
aug-cc-pVTZ
bse_CVTZ
aug-cc-pVTZ
aug-cc-pVTZ
aug-cc-pVTZ
aug-cc-pVTZ
aug-cc-pVTZ
bse_CVTZ
aug-cc-pVTZ
aug-cc-pVTZ
aug-cc-pVTZ

basis_sm=special
def2-SVP
def2-SVP
def2-SVP
def2-SVP
def2-SVP
def2-SVP
def2-SVP
def2-SVP
def2-SVP
def2-SVP
def2-SVP
def2-SVP
def2-SVP
def2-SVP

dfbasis_scf=special
def2-QZVPP-RI-JK
def2-QZVPP-RI-JK
def2-QZVPP-RI-JK
def2-QZVPP-RI-JK
def2-QZVPP-RI-JK
def2-QZVPP-RI-JK
def2-QZVPP-RI-JK
def2-QZVPP-RI-JK
def2-QZVPP-RI-JK
def2-QZVPP-RI-JK
def2-QZVPP-RI-JK
def2-QZVPP-RI-JK
def2-QZVPP-RI-JK
def2-QZVPP-RI-JK

dfbasis_cor=special
aug-cc-pVTZ-RI
aug-cc-pVTZ-RI
aug-cc-pVTZ-RI
aug-cc-pVTZ-RI
bse_CVTZ_mp2fit
aug-cc-pVTZ-RI
aug-cc-pVTZ-RI
aug-cc-pVTZ-RI
aug-cc-pVTZ-RI
aug-cc-pVTZ-RI
bse_CVTZ_mp2fit
aug-cc-pVTZ-RI
aug-cc-pVTZ-RI
aug-cc-pVTZ-RI

ecp=special
none
none
none
none
none
none
none
none
none
none
none
none
none
none

unit=angs
geom=xyz
14
N2 O2 Mg2 O8 ECP34
N    -1.70405963805   -1.70405712827    2.26414168348
N    -0.39353036420   -0.39352673915    2.24350696282
O    -1.92362708458   -1.92361426085    3.38577361047
O    -0.15453424971   -0.15452091980    3.35706853724
Mg    0.00000000000    0.00000000000   -0.01531913526
O    -0.01397522745    2.09468953471   -0.01585324347
O     2.09468905905   -0.01397437085   -0.01585277191
O    -0.01778966524   -0.01778880947   -2.13403421792
O    -0.00133952625   -2.13087240787   -0.00000161082
O    -2.13087267524   -0.00133947280    0.00000000000
Mg   -2.13088520181   -2.13088545772   -0.01012263154
O    -2.11558402862   -2.11558331309   -2.13320886404
O    -2.11840960322   -4.22621272714   -0.01381232594
O    -4.22621367587   -2.11840916182   -0.01381306365

ghost=serialno
5-14

 
 
 Checking keyword combinations...
 
 Keywords:
 
 active=none
--------------------Output has been truncated-------------------------


--------------------Output has been truncated-------------------------


--------------------Output has been truncated-------------------------


--------------------Output has been truncated-------------------------


--------------------Output has been truncated-------------------------


--------------------Output has been truncated-------------------------


--------------------Output has been truncated-------------------------


--------------------Output has been truncated-------------------------


--------------------Output has been truncated-------------------------


--------------------Output has been truncated-------------------------


 
 Final local CC results:
 
 Minimum number of correlated electrons:        22       (100.0%)
 Maximum number of correlated electrons:        22       (100.0%)
 Average number of correlated electrons:        22.0     (100.0%)
 Minimum number of correlated orbitals:        105       ( 15.8%)
 Maximum number of correlated orbitals:        137       ( 20.6%)
 Average number of correlated orbitals:        111.4     ( 16.7%)
 
 CPU time for integral calculations [min]:                  2.859
 Wall time for integral calculations [min]:                 0.085
 
 CPU time for SCF calculation [min]:                       13.311
 Wall time for SCF calculation [min]:                       0.388
 
 CPU time for orbital localization [min]:                   0.145
 Wall time for orbital localization [min]:                  0.015
 
 CPU time for integral transformations [min]:             115.219
 Wall time for integral transformations [min]:              3.453
 
 Reference energy [au]:                                  -258.509431015038
 
 LMP2 correlation energy [au]:                             -0.905359760216
 Total LMP2 energy [au]:                                 -259.414790775254
 
 Total MP2 correction for dropped NAFs [au]:               -0.000012062251
 Total MP2 correction [au]:                                -0.001041830832
 
 CPU time for CCSD calculations [min]:                     18.196
 Total CPU time for CCSD [min]:                           149.730
 Wall time for CCSD calculations [min]:                     0.522
 Total wall time for CCSD [min]:                            4.464
 
 CCSD correlation energy [au]:                             -0.889353074560
 Total CCSD energy [au]:                                 -259.398784089598
 CCSD correlation energy + 0.5 MP2 corrections [au]:       -0.889873989976
 Total LNO-CCSD energy with MP2 corrections [au]:        -259.399305005014
 
 CPU time for (T) corrections [min]:                       11.539
 Total CPU time for CCSD(T) [min]:                        161.269
 Wall time for (T) corrections [min]:                       0.345
 Total wall time for CCSD(T) [min]:                         4.808
 
 Total (T) correlation energy contribution [au]:           -0.052992433884
 Total (T) correlation energy+0.5 MP2 correction [au]:     -0.053513349300
 CCSD(T) correlation energy [au]:                          -0.942345508444
 Total CCSD(T) energy [au]:                              -259.451776523482
 CCSD(T) correlation energy + MP2 corrections [au]:        -0.943387339275
 Total LNO-CCSD(T) energy with MP2 corrections [au]:     -259.452818354314
 
 ======================================================================
 ======================================================================
 
 ************************ 2023-02-07 16:16:50 *************************
                      Normal termination of mrcc.
 **********************************************************************
