 vasp.6.3.0 20Jan22 (build Aug 21 2024 11:13:42) complex                         
 executed on        HPECrayEX_GCC date 2024.11.27  08:54:35
 running  512 mpi-ranks, with    1 threads/rank
 distrk:  each k-point on  512 cores,    1 groups
 distr:  one band on NCORE=  16 cores,   32 groups


--------------------------------------------------------------------------------------------------------


 INCAR:
   SYSTEM = TiO2
   ISMEAR = 0
   SIGMA = 0.05
   EDIFF = 1E-4
   ALGO = ALL
   ISTART = 0
   IBRION = -1
   NSW = 0
   ISYM = 0
   ISIF = 2
   EDIFFG = -0.01
   DIPOL = 0.5 0.5 0.5
   IDIPOL = 3
   LDIPOL = .TRUE.
   LHFCALC = .TRUE.
   HFSCREEN = 0.2
   GGA = PE
   IVDW = 13
   VDW_S8 = 1.19528249
   VDW_A1 = 0.38663183
   VDW_A2 = 5.19133469
   ENCUT = 520
   PREC = Normal
   PRECFOCK = Fast
   LASPH = .TRUE.
   LREAL = .FALSE.
   ISPIN = 1
   NKREDX = 3
   NKREDY = 3
   NELM = 200
   NELMIN = 8
   NCORE = 16
   KPAR = 1
   LWAVE = .FALSE.
   LCHARG = .FALSE.

 POTCAR:    PAW_PBE N 08Apr2002                   
 POTCAR:    PAW_PBE H 15Jun2001                   
 POTCAR:    PAW_PBE N 08Apr2002                   
   SHA256 =  e053789ff3a61a86a1b75d8a110fcc91f86041011e7b0817c7c99e4e8a6349d7 N/POTCAR              
   COPYR  = (c) Copyright 08Apr2002 Georg Kresse                                                    
   COPYR  = This file is part of the software VASP. Any use, copying, and all other rights are regul
   COPYR  = If you do not have a valid VASP license, you may not use, copy or distribute this file. 
   VRHFIN =N: s2p3                                                                                  
   LEXCH  = PE                                                                                      
   EATOM  =   264.5486 eV,   19.4438 Ry                                                             
                                                                                                    
   TITEL  = PAW_PBE N 08Apr2002                                                                     
   LULTRA =        F    use ultrasoft PP ?                                                          
   IUNSCR =        1    unscreen: 0-lin 1-nonlin 2-no                                               
   RPACOR =    1.200    partial core radius                                                         
   POMASS =   14.001; ZVAL   =    5.000    mass and valenz                                          
   RCORE  =    1.500    outmost cutoff radius                                                       
   RWIGS  =    1.400; RWIGS  =    0.741    wigner-seitz radius (au A)                               
   ENMAX  =  400.000; ENMIN  =  300.000 eV                                                          
   ICORE  =        2    local potential                                                             
   LCOR   =        T    correct aug charges                                                         
   LPAW   =        T    paw PP                                                                      
   EAUG   =  627.112                                                                                
   DEXC   =    0.000                                                                                
   RMAX   =    1.529    core radius for proj-oper                                                   
   RAUG   =    1.300    factor for augmentation sphere                                              
   RDEP   =    1.514    radius for radial grids                                                     
   RDEPT  =    1.338    core radius for aug-charge                                                  
                                                                                                    
   Atomic configuration                                                                             
    4 entries                                                                                       
     n  l   j            E        occ.                                                              
     1  0  0.50      -384.7179   2.0000                                                             
     2  0  0.50       -18.5828   2.0000                                                             
     2  1  0.50        -7.0898   3.0000                                                             
     3  2  1.50        -6.8029   0.0000                                                             
   Description                                                                                      
     l       E           TYP  RCUT    TYP  RCUT                                                     
     0    -18.5828119     23  1.200                                                                 
     0    -13.5018863     23  1.200                                                                 
     1     -7.0897853     23  1.500                                                                 
     1      9.5240782     23  1.500                                                                 
     2     -6.8029130      7  1.500                                                                 
  local pseudopotential read in
  partial core-charges read in
  partial kinetic energy density read in
  atomic valenz-charges read in
  non local Contribution for L=           0  read in
    real space projection operators read in
  non local Contribution for L=           0  read in
    real space projection operators read in
  non local Contribution for L=           1  read in
    real space projection operators read in
  non local Contribution for L=           1  read in
    real space projection operators read in
    PAW grid and wavefunctions read in

   number of l-projection  operators is LMAX  =           4
   number of lm-projection operators is LMMAX =           8

 POTCAR:    PAW_PBE H 15Jun2001                   
   SHA256 =  030f79b5d3ab3cf0e668861823c8fb652ff669f3e15e46930bd03bfd63a607b6 H/POTCAR              
   COPYR  = (c) Copyright 15Jun2001 Georg Kresse                                                    
   COPYR  = This file is part of the software VASP. Any use, copying, and all other rights are regul
   COPYR  = If you do not have a valid VASP license, you may not use, copy or distribute this file. 
   VRHFIN =H: ultrasoft test                                                                        
   LEXCH  = PE                                                                                      
   EATOM  =    12.4884 eV,    0.9179 Ry                                                             
                                                                                                    
   TITEL  = PAW_PBE H 15Jun2001                                                                     
   LULTRA =        F    use ultrasoft PP ?                                                          
   IUNSCR =        0    unscreen: 0-lin 1-nonlin 2-no                                               
   RPACOR =    0.000    partial core radius                                                         
   POMASS =    1.000; ZVAL   =    1.000    mass and valenz                                          
   RCORE  =    1.100    outmost cutoff radius                                                       
   RWIGS  =    0.700; RWIGS  =    0.370    wigner-seitz radius (au A)                               
   ENMAX  =  250.000; ENMIN  =  200.000 eV                                                          
   RCLOC  =    0.701    cutoff for local pot                                                        
   LCOR   =        T    correct aug charges                                                         
   LPAW   =        T    paw PP                                                                      
   EAUG   =  400.000                                                                                
   RMAX   =    1.123    core radius for proj-oper                                                   
   RAUG   =    1.200    factor for augmentation sphere                                              
   RDEP   =    1.112    radius for radial grids                                                     
   RDEPT  =    0.926    core radius for aug-charge                                                  
                                                                                                    
   Atomic configuration                                                                             
    2 entries                                                                                       
     n  l   j            E        occ.                                                              
     1  0  0.50        -6.4927   1.0000                                                             
     2  1  0.50        -3.4015   0.0000                                                             
   Description                                                                                      
     l       E           TYP  RCUT    TYP  RCUT                                                     
     0     -6.4927494     23  1.100                                                                 
     0      6.8029130     23  1.100                                                                 
     1     -4.0817478     23  1.100                                                                 
  local pseudopotential read in
  atomic valenz-charges read in
  non local Contribution for L=           0  read in
    real space projection operators read in
  non local Contribution for L=           0  read in
    real space projection operators read in
  non local Contribution for L=           1  read in
    real space projection operators read in
    PAW grid and wavefunctions read in

   number of l-projection  operators is LMAX  =           3
   number of lm-projection operators is LMMAX =           5

  PAW_PBE N 08Apr2002                   :
 energy of atom  1       EATOM= -264.5486
 kinetic energy error for atom=    0.0125 (will be added to EATOM!!)
  PAW_PBE H 15Jun2001                   :
 energy of atom  2       EATOM=  -12.4884
 kinetic energy error for atom=    0.0014 (will be added to EATOM!!)


 POSCAR:  N  H
  positions in direct lattice
  No initial velocities read in
 WARNING: Using user supplied parameters
     VDW_S8 = 1.195
     VDW_A1 = 0.387
     VDW_A2 = 5.191
     because the xc functional is not supported. Required parameters not
     defined in the INCAR file will be replaced with PBE defaults ones.

 exchange correlation table for  LEXCH =        8
   RHO(1)=    0.500       N(1)  =     2000
   RHO(2)=  100.500       N(2)  =     4000



--------------------------------------------------------------------------------------------------------


 ion  position               nearest neighbor table
   1  0.611  0.500  0.777-   2 1.02   3 1.02   4 1.02
   2  0.549  0.500  0.805-   1 1.02
   3  0.670  0.428  0.779-   1 1.02
   4  0.670  0.572  0.779-   1 1.02


IMPORTANT INFORMATION: All symmetrisations will be switched off!
NOSYMM: (Re-)initialisation of all symmetry stuff for point group C_1.


----------------------------------------------------------------------------------------

                                     Primitive cell                                     

  volume of cell :    3249.0644

  direct lattice vectors                    reciprocal lattice vectors
    10.255507753  0.000000000  0.000000000     0.097508580 -0.000000000  0.000000000
     0.000000000 11.355710084  0.000000000     0.000000000  0.088061424  0.000000000
     0.000000000  0.000000000 27.898885647     0.000000000  0.000000000  0.035843726

  length of vectors
    10.255507753 11.355710084 27.898885647     0.097508580  0.088061424  0.035843726

  position of ions in fractional coordinates (direct lattice)
     0.611439854  0.499999988  0.776833043
     0.548829560  0.499999999  0.805050006
     0.670497087  0.428119371  0.779332027
     0.670497091  0.571880636  0.779332027

  ion indices of the primitive-cell ions
   primitive index   ion index
                 1           1
                 2           2
                 3           3
                 4           4

----------------------------------------------------------------------------------------



 KPOINTS: pymatgen v2020.8.13 with grid density = 

Automatic generation of k-mesh.
 Grid dimensions read from file:
 generate k-points for:    3    3    1

 Generating k-lattice:

  Cartesian coordinates                     Fractional coordinates (reciprocal lattice)
     0.032502860 -0.000000000  0.000000000     0.333333333  0.000000000  0.000000000
     0.000000000  0.029353808  0.000000000     0.000000000  0.333333333  0.000000000
     0.000000000  0.000000000  0.035843726     0.000000000  0.000000000  1.000000000

  Length of vectors
     0.032502860  0.029353808  0.035843726

  Shift w.r.t. Gamma in fractional coordinates (k-lattice)
     0.000000000  0.000000000  0.000000000

 
 Subroutine IBZKPT returns following result:
 ===========================================
 
 Found      5 irreducible k-points:
 
 Following reciprocal coordinates:
            Coordinates               Weight
  0.000000  0.000000  0.000000      1.000000
  0.333333  0.000000  0.000000      2.000000
  0.000000  0.333333  0.000000      2.000000
  0.333333  0.333333  0.000000      2.000000
  0.333333 -0.333333  0.000000      2.000000
 
 Following cartesian coordinates:
            Coordinates               Weight
  0.000000  0.000000  0.000000      1.000000
  0.032503  0.000000  0.000000      2.000000
  0.000000  0.029354  0.000000      2.000000
  0.032503  0.029354  0.000000      2.000000
  0.032503 -0.029354  0.000000      2.000000
 
 
 Subroutine IBZKPT_HF returns following result:
 ==============================================
 
 Found      9 k-points in 1st BZ
 the following      9 k-points will be used (e.g. in the exchange kernel)
 Following reciprocal coordinates:   # in IRBZ
  0.000000  0.000000  0.000000    0.11111111   1 t-inv F
  0.333333  0.000000  0.000000    0.11111111   2 t-inv F
  0.000000  0.333333  0.000000    0.11111111   3 t-inv F
  0.333333  0.333333  0.000000    0.11111111   4 t-inv F
  0.333333 -0.333333  0.000000    0.11111111   5 t-inv F
 -0.333333 -0.000000 -0.000000    0.11111111   2 t-inv T
 -0.000000 -0.333333 -0.000000    0.11111111   3 t-inv T
 -0.333333 -0.333333 -0.000000    0.11111111   4 t-inv T
 -0.333333  0.333333 -0.000000    0.11111111   5 t-inv T


--------------------------------------------------------------------------------------------------------




 Dimension of arrays:
   k-points           NKPTS =      5   k-points in BZ     NKDIM =      9   number of bands    NBANDS=     32
   number of dos      NEDOS =    301   number of ions     NIONS =      4
   non local maximal  LDIM  =      4   non local SUM 2l+1 LMDIM =      8
   total plane-waves  NPLWV = 614400
   max r-space proj   IRMAX =      1   max aug-charges    IRDMAX=   2526
   dimension x,y,z NGX =    60 NGY =   64 NGZ =  160
   dimension x,y,z NGXF=   120 NGYF=  128 NGZF=  320
   support grid    NGXF=   120 NGYF=  128 NGZF=  320
   ions per type =               1   3
   NGX,Y,Z   is equivalent  to a cutoff of   9.73,  9.37,  9.53 a.u.
   NGXF,Y,Z  is equivalent  to a cutoff of  19.45, 18.74, 19.07 a.u.

 SYSTEM =  TiO2                                    
 POSCAR =   N  H                                   

--------------------------------------------------------------------------------------------------------


  energy-cutoff  :      520.00
  volume of cell :     3249.06
      direct lattice vectors                 reciprocal lattice vectors
    10.255507753  0.000000000  0.000000000     0.097508580 -0.000000000  0.000000000
     0.000000000 11.355710084  0.000000000     0.000000000  0.088061424  0.000000000
     0.000000000  0.000000000 27.898885647     0.000000000  0.000000000  0.035843726

  length of vectors
    10.255507753 11.355710084 27.898885647     0.097508580  0.088061424  0.035843726



 k-points in units of 2pi/SCALE and weight: pymatgen v2020.8.13 with grid density = 
   0.00000000  0.00000000  0.00000000       0.111
   0.03250286  0.00000000  0.00000000       0.222
   0.00000000  0.02935381  0.00000000       0.222
   0.03250286  0.02935381  0.00000000       0.222
   0.03250286 -0.02935381  0.00000000       0.222

 k-points in reciprocal lattice and weights: pymatgen v2020.8.13 with grid density = 
   0.00000000  0.00000000  0.00000000       0.111
   0.33333333  0.00000000  0.00000000       0.222
   0.00000000  0.33333333  0.00000000       0.222
   0.33333333  0.33333333  0.00000000       0.222
   0.33333333 -0.33333333  0.00000000       0.222

 position of ions in fractional coordinates (direct lattice) 
   0.61143985  0.49999999  0.77683304
   0.54882956  0.50000000  0.80505001
   0.67049709  0.42811937  0.77933203
   0.67049709  0.57188064  0.77933203

 position of ions in cartesian coordinates  (Angst):
   6.27062616  5.67785490 21.67277622
   5.62852581  5.67785504 22.45999806
   6.87628808  4.86159946 21.74249511
   6.87628811  6.49411071 21.74249510



--------------------------------------------------------------------------------------------------------

--------------------------------------- Iteration      FINAL  ---------------------------------------


--------------------OUTCAR has been truncated-------------------------


--------------------OUTCAR has been truncated-------------------------


--------------------OUTCAR has been truncated-------------------------


--------------------OUTCAR has been truncated-------------------------


--------------------OUTCAR has been truncated-------------------------


--------------------OUTCAR has been truncated-------------------------


--------------------OUTCAR has been truncated-------------------------


--------------------OUTCAR has been truncated-------------------------


--------------------OUTCAR has been truncated-------------------------


--------------------OUTCAR has been truncated-------------------------


    FORVDW:  cpu time      0.0027: real time      0.0027

  FORCE on cell =-STRESS in cart. coord.  units (eV):
  Direction    XX          YY          ZZ          XY          YZ          ZX
  --------------------------------------------------------------------------------------
  Alpha Z     0.07105     0.07105     0.07105
  Ewald     126.08982   130.86832   -68.78239    -0.00002     0.00001   -34.41333
  Hartree   202.00321   194.18833    42.39978    -0.00000     0.00000    -6.46504
  E(xc)     -23.39806   -23.37836   -23.46425    -0.00000     0.00000    -0.05250
  Local    -401.66338  -393.83509   -59.02246     0.00001    -0.00001    30.89765
  n-local   -21.02151   -20.53981   -21.90001     0.00000    -0.00000    -0.77751
  augment     1.22694     1.08102     1.55929     0.00000    -0.00000     0.28033
  Kinetic   125.20143   120.25086   137.95187     0.00000    -0.00000    10.59129
  Fock       -9.05754    -9.08220    -8.92665     0.00000    -0.00000     0.08958
  vdW         0.00152     0.00173     0.00119    -0.00000     0.00000    -0.00054
  -------------------------------------------------------------------------------------
  Total      -0.54651    -0.37415    -0.11258    -0.00001    -0.00000     0.14994
  in kB      -0.26950    -0.18450    -0.05552    -0.00000    -0.00000     0.07394
  external pressure =       -0.17 kB  Pullay stress =        0.00 kB


 VOLUME and BASIS-vectors are now :
 -----------------------------------------------------------------------------
  energy-cutoff  :      520.00
  volume of cell :     3249.06
      direct lattice vectors                 reciprocal lattice vectors
    10.255507753  0.000000000  0.000000000     0.097508580 -0.000000000  0.000000000
     0.000000000 11.355710084  0.000000000     0.000000000  0.088061424  0.000000000
     0.000000000  0.000000000 27.898885647     0.000000000  0.000000000  0.035843726

  length of vectors
    10.255507753 11.355710084 27.898885647     0.097508580  0.088061424  0.035843726


 FORCES acting on ions:
    Electron-Ion                     Ewald-Force                    Non-Local-Force
 -----------------------------------------------------------------------------------------------
   0.238E+02 -.120E-04 0.390E+02   -.382E+02 0.170E-04 -.638E+02   0.135E+02 0.409E-05 0.227E+02
   0.471E+02 -.744E-05 -.534E+02   -.517E+02 0.924E-05 0.589E+02   0.465E+01 -.707E-06 -.533E+01
   -.409E+02 0.576E+02 -.210E+01   0.449E+02 -.633E+02 0.245E+01   -.411E+01 0.566E+01 -.273E+00
   -.409E+02 -.576E+02 -.210E+01   0.449E+02 0.633E+02 0.245E+01   -.411E+01 -.566E+01 -.273E+00
 -----------------------------------------------------------------------------------------------
   -.109E+02 -.759E-05 -.186E+02   0.711E-14 0.000E+00 -.142E-13   0.989E+01 0.871E-05 0.168E+02


 POSITION                                       TOTAL-FORCE (eV/Angst)
 -----------------------------------------------------------------------------------
      6.27063      5.67785     21.67278         0.301997      0.000009     -0.013226
      5.62853      5.67786     22.46000         0.242482      0.000001     -0.103793
      6.87629      4.86160     21.74250        -0.272235      0.200385      0.058511
      6.87629      6.49411     21.74250        -0.272244     -0.200395      0.058508
 -----------------------------------------------------------------------------------
    total drift:                                0.007178      0.000002     -0.015002


--------------------------------------------------------------------------------------------------------



  FREE ENERGIE OF THE ION-ELECTRON SYSTEM (eV)
  ---------------------------------------------------
  free  energy   TOTEN  =       -23.19489940 eV

  energy  without entropy=      -23.19489940  energy(sigma->0) =      -23.19489940



--------------------------------------------------------------------------------------------------------


    POTLOK:  cpu time      0.3011: real time      0.3011


--------------------------------------------------------------------------------------------------------


     LOOP+:  cpu time     49.5930: real time     49.6537
    4ORBIT:  cpu time      0.0000: real time      0.0000

 total amount of memory used by VASP MPI-rank0    64513. kBytes
=======================================================================

   base      :      30000. kBytes
   nonl-proj :       3919. kBytes
   fftplans  :       3477. kBytes
   grid      :       3946. kBytes
   one-center:          3. kBytes
   HF        :          4. kBytes
   nonlr-proj:        160. kBytes
   wavefun   :       1344. kBytes
   fock_wrk  :      21660. kBytes

  
  
 General timing and accounting informations for this job:
 ========================================================
  
                  Total CPU time used (sec):       82.424
                            User time (sec):       79.807
                          System time (sec):        2.617
                         Elapsed time (sec):       87.373
  
                   Maximum memory used (kb):      293916.
                   Average memory used (kb):          N/A
  
                          Minor page faults:        93181
                          Major page faults:          448
                 Voluntary context switches:        10696
