 vasp.6.3.0 20Jan22 (build Apr  1 2022 16:44:48) complex                         
 executed on        HPECrayEX_GCC date 2023.03.11  23:01:48
 running  768 mpi-ranks, with    1 threads/rank
 distrk:  each k-point on  768 cores,    1 groups
 distr:  one band on NCORE=   8 cores,   96 groups


--------------------------------------------------------------------------------------------------------


 INCAR:
   SYSTEM = MgO-rocksalt
   ISMEAR = 0
   SIGMA = 0.05
   EDIFF = 1E-6
   ALGO = ALL
   ISTART = 0
   IBRION = -1
   NSW = 0
   ISYM = 0
   DIPOL = 0.5 0.5 0.5
   IDIPOL = 3
   LDIPOL = .TRUE.
   LHFCALC = .TRUE.
   GGA = PE
   IVDW = 13
   VDW_S8 = 1.2007
   VDW_A1 = 0.4009
   VDW_A2 = 5.0293
   ENCUT = 600
   PREC = Accurate
   LASPH = .TRUE.
   LREAL = .FALSE.
   ISPIN = 1
   NELM = 200
   NELMIN = 8
   NCORE = 8
   KPAR = 1
   LWAVE = .FALSE.
   LCHARG = .FALSE.

 POTCAR:    PAW_PBE Mg_pv 13Apr2007               
 POTCAR:    PAW_PBE O 08Apr2002                   
 POTCAR:    PAW_PBE Mg_pv 13Apr2007               
   SHA256 =  f474ac0dd33840b9ae76c01d57fea79fdf77cdfbb07d5ade72c65f83c709b62b Mg_pv/POTCAR          
   COPYR  = (c) Copyright 13Apr2007 Georg Kresse                                                    
   COPYR  = This file is part of the software VASP. Any use, copying, and all other rights are regul
   COPYR  = If you do not have a valid VASP license, you may not use, copy or distribute this file. 
   VRHFIN =Mg: p6s2                                                                                 
   LEXCH  = PE                                                                                      
   EATOM  =  1056.7344 eV,   77.6678 Ry                                                             
                                                                                                    
   TITEL  = PAW_PBE Mg_pv 13Apr2007                                                                 
   LULTRA =        F    use ultrasoft PP ?                                                          
   IUNSCR =        1    unscreen: 0-lin 1-nonlin 2-no                                               
   RPACOR =    1.500    partial core radius                                                         
   POMASS =   24.305; ZVAL   =    8.000    mass and valenz                                          
   RCORE  =    2.000    outmost cutoff radius                                                       
   RWIGS  =    2.000; RWIGS  =    1.058    wigner-seitz radius (au A)                               
   ENMAX  =  403.929; ENMIN  =  302.947 eV                                                          
   RCLOC  =    1.506    cutoff for local pot                                                        
   LCOR   =        T    correct aug charges                                                         
   LPAW   =        T    paw PP                                                                      
   EAUG   =  758.780                                                                                
   DEXC   =    0.000                                                                                
   RMAX   =    2.045    core radius for proj-oper                                                   
   RAUG   =    1.300    factor for augmentation sphere                                              
   RDEP   =    2.025    radius for radial grids                                                     
   RDEPT  =    1.557    core radius for aug-charge                                                  
                                                                                                    
   Atomic configuration                                                                             
    5 entries                                                                                       
     n  l   j            E        occ.                                                              
     1  0  0.50     -1259.6230   2.0000                                                             
     2  0  0.50       -79.8442   2.0000                                                             
     2  1  1.50       -46.6121   6.0000                                                             
     3  0  0.50        -4.7055   2.0000                                                             
     3  2  1.50        -1.3606   0.0000                                                             
   Description                                                                                      
     l       E           TYP  RCUT    TYP  RCUT                                                     
     1    -46.6121073     23  1.600                                                                 
     1      2.7211652     23  1.600                                                                 
     0     -4.7054661     23  2.000                                                                 
     0     61.2262170     23  2.000                                                                 
     2     -1.3605826     23  2.000                                                                 
  local pseudopotential read in
  partial core-charges read in
  partial kinetic energy density read in
  atomic valenz-charges read in
  non local Contribution for L=           1  read in
    real space projection operators read in
  non local Contribution for L=           1  read in
    real space projection operators read in
  non local Contribution for L=           0  read in
    real space projection operators read in
  non local Contribution for L=           0  read in
    real space projection operators read in
  non local Contribution for L=           2  read in
    real space projection operators read in
    PAW grid and wavefunctions read in

   number of l-projection  operators is LMAX  =           5
   number of lm-projection operators is LMMAX =          13

 POTCAR:    PAW_PBE O 08Apr2002                   
   SHA256 =  818f92134a0a090dccd8ba1447fa70422a3b330e708bb4f08108d8ae51209ddf O/POTCAR              
   COPYR  = (c) Copyright 08Apr2002 Georg Kresse                                                    
   COPYR  = This file is part of the software VASP. Any use, copying, and all other rights are regul
   COPYR  = If you do not have a valid VASP license, you may not use, copy or distribute this file. 
   VRHFIN =O: s2p4                                                                                  
   LEXCH  = PE                                                                                      
   EATOM  =   432.3788 eV,   31.7789 Ry                                                             
                                                                                                    
   TITEL  = PAW_PBE O 08Apr2002                                                                     
   LULTRA =        F    use ultrasoft PP ?                                                          
   IUNSCR =        1    unscreen: 0-lin 1-nonlin 2-no                                               
   RPACOR =    1.200    partial core radius                                                         
   POMASS =   16.000; ZVAL   =    6.000    mass and valenz                                          
   RCORE  =    1.520    outmost cutoff radius                                                       
   RWIGS  =    1.550; RWIGS  =    0.820    wigner-seitz radius (au A)                               
   ENMAX  =  400.000; ENMIN  =  300.000 eV                                                          
   ICORE  =        2    local potential                                                             
   LCOR   =        T    correct aug charges                                                         
   LPAW   =        T    paw PP                                                                      
   EAUG   =  605.392                                                                                
   DEXC   =    0.000                                                                                
   RMAX   =    1.553    core radius for proj-oper                                                   
   RAUG   =    1.300    factor for augmentation sphere                                              
   RDEP   =    1.550    radius for radial grids                                                     
   RDEPT  =    1.329    core radius for aug-charge                                                  
                                                                                                    
   Atomic configuration                                                                             
    4 entries                                                                                       
     n  l   j            E        occ.                                                              
     1  0  0.50      -514.6923   2.0000                                                             
     2  0  0.50       -23.9615   2.0000                                                             
     2  1  0.50        -9.0305   4.0000                                                             
     3  2  1.50        -9.5241   0.0000                                                             
   Description                                                                                      
     l       E           TYP  RCUT    TYP  RCUT                                                     
     0    -23.9615318     23  1.200                                                                 
     0     -9.5240782     23  1.200                                                                 
     1     -9.0304911     23  1.520                                                                 
     1      8.1634956     23  1.520                                                                 
     2     -9.5240782      7  1.500                                                                 
  local pseudopotential read in
  partial core-charges read in
  partial kinetic energy density read in
  kinetic energy density of atom read in
  atomic valenz-charges read in
  non local Contribution for L=           0  read in
    real space projection operators read in
  non local Contribution for L=           0  read in
    real space projection operators read in
  non local Contribution for L=           1  read in
    real space projection operators read in
  non local Contribution for L=           1  read in
    real space projection operators read in
    PAW grid and wavefunctions read in

   number of l-projection  operators is LMAX  =           4
   number of lm-projection operators is LMMAX =           8

 -----------------------------------------------------------------------------
|                                                                             |
|               ----> ADVICE to this user running VASP <----                  |
|                                                                             |
|     You have a (more or less) 'large supercell' and for larger cells it     |
|     might be more efficient to use real-space projection operators.         |
|     Therefore, try LREAL= Auto in the INCAR file.                           |
|     Mind: For very accurate calculation, you might also keep the            |
|     reciprocal projection scheme (i.e. LREAL=.FALSE.).                      |
|                                                                             |
 -----------------------------------------------------------------------------

  PAW_PBE Mg_pv 13Apr2007               :
 energy of atom  1       EATOM=-1056.7344
 kinetic energy error for atom=    0.0221 (will be added to EATOM!!)
  PAW_PBE O 08Apr2002                   :
 energy of atom  2       EATOM= -432.3788
 kinetic energy error for atom=    0.0168 (will be added to EATOM!!)


 POSCAR: Mg  O
  positions in direct lattice
  No initial velocities read in
 -----------------------------------------------------------------------------
|                                                                             |
|           W    W    AA    RRRRR   N    N  II  N    N   GGGG   !!!           |
|           W    W   A  A   R    R  NN   N  II  NN   N  G    G  !!!           |
|           W    W  A    A  R    R  N N  N  II  N N  N  G       !!!           |
|           W WW W  AAAAAA  RRRRR   N  N N  II  N  N N  G  GGG   !            |
|           WW  WW  A    A  R   R   N   NN  II  N   NN  G    G                |
|           W    W  A    A  R    R  N    N  II  N    N   GGGG   !!!           |
|                                                                             |
|     Specifying the vdW parameters                                           |
|     VDW_S8 = 1.201                                                          |
|     VDW_A1 = 0.401                                                          |
|     VDW_A2 = 5.029                                                          |
|     in the INCAR file will overwrite the defaults for pbe0. Please make     |
|     sure that is what you intended.                                         |
|                                                                             |
 -----------------------------------------------------------------------------

 exchange correlation table for  LEXCH =        8
   RHO(1)=    0.500       N(1)  =     2000
   RHO(2)=  100.500       N(2)  =     4000



--------------------------------------------------------------------------------------------------------


 ion  position               nearest neighbor table
   1  0.000  0.750  0.350-  33 2.14  35 2.14  36 2.14  43 2.14  52 2.14
   2  0.250  0.000  0.350-  34 2.14  35 2.14  36 2.14  44 2.14  51 2.14
   3  0.000  0.000  0.450-  35 2.14  34 2.14  33 2.14  41 2.14  50 2.14  39 2.14
   4  0.250  0.750  0.450-  36 2.14  34 2.14  33 2.14  42 2.14  49 2.14  40 2.14
   5  1.000  0.750  0.550-  56 2.14  39 2.14  47 2.14  40 2.14  33 2.15  37 2.16
   6  0.250  1.000  0.550-  39 2.14  40 2.14  55 2.14  48 2.14  34 2.15  38 2.17
   7  0.000  0.000  0.650-  39 2.13  45 2.14  38 2.14  54 2.14  37 2.14
   8  0.250  0.750  0.649-  40 2.13  37 2.13  53 2.14  38 2.14  46 2.14
   9  0.000  0.250  0.350-  41 2.14  35 2.14  43 2.14  44 2.14  60 2.14
  10  0.250  0.500  0.350-  42 2.14  36 2.14  43 2.14  44 2.14  59 2.14
  11  0.000  0.500  0.450-  43 2.14  41 2.14  42 2.14  33 2.14  58 2.14  47 2.14
  12  0.250  0.250  0.450-  44 2.14  41 2.14  42 2.14  34 2.14  57 2.14  48 2.14
  13  0.000  0.250  0.550-  39 2.14  64 2.14  47 2.14  48 2.14  41 2.15  45 2.17
  14  0.250  0.500  0.550-  47 2.14  40 2.14  48 2.14  63 2.14  42 2.15  46 2.16
  15  0.000  0.500  0.650-  47 2.13  46 2.13  45 2.14  37 2.14  62 2.14
  16  0.250  0.250  0.650-  48 2.13  45 2.14  38 2.14  46 2.14  61 2.14
  17  0.500  0.750  0.350-  49 2.14  36 2.14  51 2.14  52 2.14  59 2.14
  18  0.750  0.000  0.350-  50 2.14  35 2.14  51 2.14  52 2.14  60 2.14
  19  0.500  0.000  0.450-  51 2.14  49 2.14  50 2.14  34 2.14  57 2.14  55 2.14
  20  0.750  0.750  0.450-  52 2.14  49 2.14  50 2.14  33 2.14  58 2.14  56 2.15
  21  0.500  0.750  0.551-  56 2.13  55 2.13  63 2.14  40 2.14  49 2.15  53 2.17
  22  0.750  1.000  0.550-  56 2.14  39 2.14  55 2.14  64 2.14  50 2.15  54 2.16
  23  0.500  0.000  0.649-  55 2.13  61 2.13  38 2.14  54 2.14  53 2.14
  24  0.751  0.751  0.651-  37 2.13  54 2.13  62 2.15  53 2.15  56 2.15
  25  0.500  0.250  0.350-  57 2.14  51 2.14  44 2.14  59 2.14  60 2.14
  26  0.750  0.500  0.350-  58 2.14  52 2.14  43 2.14  59 2.14  60 2.14
  27  0.500  0.500  0.450-  59 2.14  49 2.14  57 2.14  58 2.14  42 2.14  63 2.14
  28  0.750  0.250  0.450-  60 2.14  50 2.14  57 2.14  58 2.14  41 2.14  64 2.14
  29  0.500  0.250  0.550-  55 2.14  64 2.14  48 2.14  63 2.14  57 2.15  61 2.16
  30  0.750  0.500  0.551-  56 2.13  47 2.13  63 2.14  64 2.14  58 2.15  62 2.17
  31  0.499  0.499  0.649-  63 2.12  61 2.13  46 2.13  62 2.14  53 2.14
  32  0.750  0.250  0.649-  64 2.13  54 2.13  62 2.14  45 2.14  61 2.14
  33  0.000  0.750  0.450-   1 2.14   3 2.14   4 2.14  11 2.14  20 2.14   5 2.15
  34  0.250  0.000  0.450-   2 2.14   3 2.14   4 2.14  12 2.14  19 2.14   6 2.15
  35  0.000  0.000  0.350-   3 2.14   2 2.14   1 2.14   9 2.14  18 2.14
  36  0.250  0.750  0.350-   4 2.14   2 2.14   1 2.14  10 2.14  17 2.14
  37  0.001  0.750  0.651-   8 2.13  24 2.13  15 2.14   7 2.14   5 2.16
  38  0.250  0.000  0.652-  16 2.14   7 2.14  23 2.14   8 2.14   6 2.17
  39  0.000  0.000  0.550-   7 2.13   6 2.14  13 2.14  22 2.14   5 2.14   3 2.14
  40  0.250  0.750  0.550-   8 2.13   6 2.14  14 2.14  21 2.14   5 2.14   4 2.14
  41  0.000  0.250  0.450-   9 2.14   3 2.14  11 2.14  12 2.14  28 2.14  13 2.15
  42  0.250  0.500  0.450-  10 2.14   4 2.14  11 2.14  12 2.14  27 2.14  14 2.15
  43  0.000  0.500  0.350-  11 2.14   9 2.14  10 2.14   1 2.14  26 2.14
  44  0.250  0.250  0.350-  12 2.14   9 2.14  10 2.14   2 2.14  25 2.14
  45  0.000  0.250  0.652-  16 2.14   7 2.14  15 2.14  32 2.14  13 2.17
  46  0.250  0.500  0.651-  31 2.13  15 2.13  16 2.14   8 2.14  14 2.16
  47  1.000  0.500  0.550-  15 2.13  30 2.13  14 2.14  13 2.14   5 2.14  11 2.14
  48  0.250  0.250  0.550-  16 2.13   6 2.14  13 2.14  14 2.14  29 2.14  12 2.14
  49  0.500  0.750  0.450-  17 2.14   4 2.14  19 2.14  20 2.14  27 2.14  21 2.15
  50  0.750  0.000  0.450-  18 2.14   3 2.14  19 2.14  20 2.14  28 2.14  22 2.15
  51  0.500  0.000  0.350-  19 2.14  17 2.14  18 2.14   2 2.14  25 2.14
  52  0.750  0.750  0.350-  20 2.14  17 2.14  18 2.14   1 2.14  26 2.14
  53  0.500  0.750  0.652-   8 2.14  23 2.14  31 2.14  24 2.15  21 2.17
  54  0.750  0.001  0.651-  32 2.13  24 2.13  23 2.14   7 2.14  22 2.16
  55  0.500  1.000  0.550-  23 2.13  21 2.13  29 2.14   6 2.14  22 2.14  19 2.14
  56  0.750  0.750  0.550-  30 2.13  21 2.13   5 2.14  22 2.14  20 2.15  24 2.15
  57  0.500  0.250  0.450-  25 2.14  19 2.14  12 2.14  27 2.14  28 2.14  29 2.15
  58  0.750  0.500  0.450-  26 2.14  20 2.14  11 2.14  27 2.14  28 2.14  30 2.15
  59  0.500  0.500  0.350-  27 2.14  17 2.14  25 2.14  26 2.14  10 2.14
  60  0.750  0.250  0.350-  28 2.14  18 2.14  25 2.14  26 2.14   9 2.14
  61  0.500  0.250  0.651-  31 2.13  23 2.13  16 2.14  32 2.14  29 2.16
  62  0.750  0.500  0.652-  32 2.14  15 2.14  31 2.14  24 2.15  30 2.17
  63  0.500  0.500  0.550-  31 2.12  21 2.14  30 2.14  29 2.14  14 2.14  27 2.14
  64  0.750  0.250  0.550-  32 2.13  13 2.14  29 2.14  30 2.14  22 2.14  28 2.14


IMPORTANT INFORMATION: All symmetrisations will be switched off!
NOSYMM: (Re-)initialisation of all symmetry stuff for point group C_1.


----------------------------------------------------------------------------------------

                                     Primitive cell                                     

  volume of cell :    1563.6717

  direct lattice vectors                    reciprocal lattice vectors
     8.546113626  0.000000000  0.000000000     0.117012252  0.000000000  0.000000000
     0.000000000  8.546113626  0.000000000     0.000000000  0.117012252  0.000000000
     0.000000000  0.000000000 21.409585219     0.000000000  0.000000000  0.046708051

  length of vectors
     8.546113626  8.546113626 21.409585219     0.117012252  0.117012252  0.046708051

  position of ions in fractional coordinates (direct lattice)
     0.000000000  0.750000000  0.350310383
     0.250000000  0.000000000  0.350310383
     0.000000000  0.000000000  0.450103461
     0.250000000  0.750000000  0.450103461
     0.999875424  0.750079784  0.550486685
     0.250025802  0.999965419  0.550350887
     0.000234091  0.000173349  0.649549771
     0.249879741  0.749978123  0.649452443
     0.000000000  0.250000000  0.350310383
     0.250000000  0.500000000  0.350310383
     0.000000000  0.500000000  0.450103461
     0.250000000  0.250000000  0.450103461
     0.000009634  0.249986660  0.550353614
     0.249812239  0.500009577  0.550298447
     0.000252109  0.500022089  0.649505022
     0.249970671  0.249907454  0.649591298
     0.500000000  0.750000000  0.350310383
     0.750000000  0.000000000  0.350310383
     0.500000000  0.000000000  0.450103461
     0.750000000  0.750000000  0.450103461
     0.500344427  0.750052956  0.550556646
     0.750130143  0.999837444  0.550484101
     0.500093739  0.000204507  0.649474628
     0.750950648  0.750890143  0.650681374
     0.500000000  0.250000000  0.350310383
     0.750000000  0.500000000  0.350310383
     0.500000000  0.500000000  0.450103461
     0.750000000  0.250000000  0.450103461
     0.500057273  0.249779870  0.550294848
     0.750103260  0.500304137  0.550556789
     0.499135362  0.499061321  0.648969043
     0.750053397  0.249823434  0.649460311
     0.000000000  0.750000000  0.450103461
     0.250000000  0.000000000  0.450103461
     0.000000000  0.000000000  0.350310383
     0.250000000  0.750000000  0.350310383
     0.000606822  0.750089394  0.651226611
     0.250149020  0.000078091  0.651507394
     0.000163850  0.000114977  0.550097299
     0.250215496  0.750010878  0.550096809
     0.000000000  0.250000000  0.450103461
     0.250000000  0.500000000  0.450103461
     0.000000000  0.500000000  0.350310383
     0.250000000  0.250000000  0.350310383
     0.000144524  0.250082599  0.651506146
     0.249923816  0.499826470  0.651244455
     0.999899317  0.499951104  0.550145051
     0.250011921  0.249965276  0.550086336
     0.500000000  0.750000000  0.450103461
     0.750000000  0.000000000  0.450103461
     0.500000000  0.000000000  0.350310383
     0.750000000  0.750000000  0.350310383
     0.499761832  0.749647309  0.651938670
     0.750152449  0.000562198  0.651199286
     0.499989593  0.999868864  0.550137754
     0.749977783  0.749930926  0.550385705
     0.500000000  0.250000000  0.450103461
     0.750000000  0.500000000  0.450103461
     0.500000000  0.500000000  0.350310383
     0.750000000  0.250000000  0.350310383
     0.499891965  0.249859354  0.651258053
     0.749686141  0.499727411  0.651960473
     0.500035043  0.499986437  0.550103177
     0.750052503  0.250189762  0.550098675

  ion indices of the primitive-cell ions
   primitive index   ion index
                 1           1
                 2           2
                 3           3
                 4           4
                 5           5
                 6           6
                 7           7
                 8           8
                 9           9
                10          10
                11          11
                12          12
                13          13
                14          14
                15          15
                16          16
                17          17
                18          18
                19          19
                20          20
                21          21
                22          22
                23          23
                24          24
                25          25
                26          26
                27          27
                28          28
                29          29
                30          30
                31          31
                32          32
                33          33
                34          34
                35          35
                36          36
                37          37
                38          38
                39          39
                40          40
                41          41
                42          42
                43          43
                44          44
                45          45
                46          46
                47          47
                48          48
                49          49
                50          50
                51          51
                52          52
                53          53
                54          54
                55          55
                56          56
                57          57
                58          58
                59          59
                60          60
                61          61
                62          62
                63          63
                64          64

----------------------------------------------------------------------------------------



 KPOINTS: pymatgen v2020.8.13 with grid density = 

Automatic generation of k-mesh.
 Grid dimensions read from file:
 generate k-points for:    2    2    1

 Generating k-lattice:

  Cartesian coordinates                     Fractional coordinates (reciprocal lattice)
     0.058506126  0.000000000  0.000000000     0.500000000  0.000000000  0.000000000
     0.000000000  0.058506126  0.000000000     0.000000000  0.500000000  0.000000000
     0.000000000  0.000000000  0.046708051     0.000000000  0.000000000  1.000000000

  Length of vectors
     0.058506126  0.058506126  0.046708051

  Shift w.r.t. Gamma in fractional coordinates (k-lattice)
     0.000000000  0.000000000  0.000000000

 
 Subroutine IBZKPT returns following result:
 ===========================================
 
 Found      4 irreducible k-points:
 
 Following reciprocal coordinates:
            Coordinates               Weight
  0.000000  0.000000  0.000000      1.000000
  0.500000  0.000000  0.000000      1.000000
  0.000000  0.500000  0.000000      1.000000
  0.500000  0.500000  0.000000      1.000000
 
 Following cartesian coordinates:
            Coordinates               Weight
  0.000000  0.000000  0.000000      1.000000
  0.058506  0.000000  0.000000      1.000000
  0.000000  0.058506  0.000000      1.000000
  0.058506  0.058506  0.000000      1.000000
 
 
 Subroutine IBZKPT_HF returns following result:
 ==============================================
 
 Found      4 k-points in 1st BZ
 the following      4 k-points will be used (e.g. in the exchange kernel)
 Following reciprocal coordinates:   # in IRBZ
  0.000000  0.000000  0.000000    0.25000000   1 t-inv F
  0.500000  0.000000  0.000000    0.25000000   2 t-inv F
  0.000000  0.500000  0.000000    0.25000000   3 t-inv F
  0.500000  0.500000  0.000000    0.25000000   4 t-inv F


--------------------------------------------------------------------------------------------------------




 Dimension of arrays:
   k-points           NKPTS =      4   k-points in BZ     NKDIM =      4   number of bands    NBANDS=    288
   number of dos      NEDOS =    301   number of ions     NIONS =     64
   non local maximal  LDIM  =      5   non local SUM 2l+1 LMDIM =     13
   total plane-waves  NPLWV = 882000
   max r-space proj   IRMAX =      1   max aug-charges    IRDMAX=  11315
   dimension x,y,z NGX =    70 NGY =   70 NGZ =  180
   dimension x,y,z NGXF=   140 NGYF=  140 NGZF=  360
   support grid    NGXF=   140 NGYF=  140 NGZF=  360
   ions per type =              32  32
   NGX,Y,Z   is equivalent  to a cutoff of  13.62, 13.62, 13.98 a.u.
   NGXF,Y,Z  is equivalent  to a cutoff of  27.23, 27.23, 27.95 a.u.

 SYSTEM =  MgO-rocksalt                            
 POSCAR =  Mg  O                                   

--------------------------------------------------------------------------------------------------------


  energy-cutoff  :      600.00
  volume of cell :     1563.67
      direct lattice vectors                 reciprocal lattice vectors
     8.546113626  0.000000000  0.000000000     0.117012252  0.000000000  0.000000000
     0.000000000  8.546113626  0.000000000     0.000000000  0.117012252  0.000000000
     0.000000000  0.000000000 21.409585219     0.000000000  0.000000000  0.046708051

  length of vectors
     8.546113626  8.546113626 21.409585219     0.117012252  0.117012252  0.046708051



 k-points in units of 2pi/SCALE and weight: pymatgen v2020.8.13 with grid density = 
   0.00000000  0.00000000  0.00000000       0.250
   0.05850613  0.00000000  0.00000000       0.250
   0.00000000  0.05850613  0.00000000       0.250
   0.05850613  0.05850613  0.00000000       0.250

 k-points in reciprocal lattice and weights: pymatgen v2020.8.13 with grid density = 
   0.00000000  0.00000000  0.00000000       0.250
   0.50000000  0.00000000  0.00000000       0.250
   0.00000000  0.50000000  0.00000000       0.250
   0.50000000  0.50000000  0.00000000       0.250

 position of ions in fractional coordinates (direct lattice) 
   0.00000000  0.75000000  0.35031038
   0.25000000  0.00000000  0.35031038
   0.00000000  0.00000000  0.45010346
   0.25000000  0.75000000  0.45010346
   0.99987542  0.75007978  0.55048668
   0.25002580  0.99996542  0.55035089
   0.00023409  0.00017335  0.64954977
   0.24987974  0.74997812  0.64945244
   0.00000000  0.25000000  0.35031038
   0.25000000  0.50000000  0.35031038
   0.00000000  0.50000000  0.45010346
   0.25000000  0.25000000  0.45010346
   0.00000963  0.24998666  0.55035361
   0.24981224  0.50000958  0.55029845
   0.00025211  0.50002209  0.64950502
   0.24997067  0.24990745  0.64959130
   0.50000000  0.75000000  0.35031038
   0.75000000  0.00000000  0.35031038
   0.50000000  0.00000000  0.45010346
   0.75000000  0.75000000  0.45010346
   0.50034443  0.75005296  0.55055665
   0.75013014  0.99983744  0.55048410
   0.50009374  0.00020451  0.64947463
   0.75095065  0.75089014  0.65068137
   0.50000000  0.25000000  0.35031038
   0.75000000  0.50000000  0.35031038
   0.50000000  0.50000000  0.45010346
   0.75000000  0.25000000  0.45010346
   0.50005727  0.24977987  0.55029485
   0.75010326  0.50030414  0.55055679
   0.49913536  0.49906132  0.64896904
   0.75005340  0.24982343  0.64946031
   0.00000000  0.75000000  0.45010346
   0.25000000  0.00000000  0.45010346
   0.00000000  0.00000000  0.35031038
   0.25000000  0.75000000  0.35031038
   0.00060682  0.75008939  0.65122661
   0.25014902  0.00007809  0.65150739
   0.00016385  0.00011498  0.55009730
   0.25021550  0.75001088  0.55009681
   0.00000000  0.25000000  0.45010346
   0.25000000  0.50000000  0.45010346
   0.00000000  0.50000000  0.35031038
   0.25000000  0.25000000  0.35031038
   0.00014452  0.25008260  0.65150615
   0.24992382  0.49982647  0.65124446
   0.99989932  0.49995110  0.55014505
   0.25001192  0.24996528  0.55008634
   0.50000000  0.75000000  0.45010346
   0.75000000  0.00000000  0.45010346
   0.50000000  0.00000000  0.35031038
   0.75000000  0.75000000  0.35031038
   0.49976183  0.74964731  0.65193867
   0.75015245  0.00056220  0.65119929
   0.49998959  0.99986886  0.55013775
   0.74997778  0.74993093  0.55038571
   0.50000000  0.25000000  0.45010346
   0.75000000  0.50000000  0.45010346
   0.50000000  0.50000000  0.35031038
   0.75000000  0.25000000  0.35031038
   0.49989196  0.24985935  0.65125805
   0.74968614  0.49972741  0.65196047
   0.50003504  0.49998644  0.55010318
   0.75005250  0.25018976  0.55009868

 position of ions in cartesian coordinates  (Angst):
   0.00000000  6.40958522  7.50000000
   2.13652841  0.00000000  7.50000000
   0.00000000  0.00000000  9.63652841
   2.13652841  6.40958522  9.63652841
   8.54504899  6.41026706 11.78569159
   2.13674891  8.54581809 11.78278421
   0.00200057  0.00148146 13.90659118
   2.13550066  6.40939826 13.90450743
   0.00000000  2.13652841  7.50000000
   2.13652841  4.27305681  7.50000000
   0.00000000  4.27305681  9.63652841
   2.13652841  2.13652841  9.63652841
   0.00008234  2.13641440 11.78284261
   2.13492378  4.27313866 11.78166149
   0.00215455  4.27324559 13.90563311
   2.13627776  2.13573750 13.90748026
   4.27305681  6.40958522  7.50000000
   6.40958522  0.00000000  7.50000000
   4.27305681  0.00000000  9.63652841
   6.40958522  6.40958522  9.63652841
   4.27600033  6.41003779 11.78718943
   6.41069743  8.54472440 11.78563628
   4.27385792  0.00174774 13.90498239
   6.41770956  6.41719248 13.93081834
   4.27305681  2.13652841  7.50000000
   6.40958522  4.27305681  7.50000000
   4.27305681  4.27305681  9.63652841
   6.40958522  2.13652841  9.63652841
   4.27354627  2.13464715 11.78158444
   6.41046769  4.27565601 11.78719250
   4.26566752  4.26503476 13.89415804
   6.41004156  2.13501945 13.90467587
   0.00000000  6.40958522  9.63652841
   2.13652841  0.00000000  9.63652841
   0.00000000  0.00000000  7.50000000
   2.13652841  6.40958522  7.50000000
   0.00518597  6.41034919 13.94249162
   2.13780195  0.00066738 13.94850308
   0.00140028  0.00098261 11.77735501
   2.13837006  6.40967818 11.77734452
   0.00000000  2.13652841  9.63652841
   2.13652841  4.27305681  9.63652841
   0.00000000  4.27305681  7.50000000
   2.13652841  2.13652841  7.50000000
   0.00123512  2.13723430 13.94847635
   2.13587733  4.27157380 13.94287367
   8.54525317  4.27263894 11.77837736
   2.13663029  2.13623165 11.77712028
   4.27305681  6.40958522  9.63652841
   6.40958522  0.00000000  9.63652841
   4.27305681  0.00000000  7.50000000
   6.40958522  6.40958522  7.50000000
   4.27102140  6.40657108 13.95773652
   6.41088807  0.00480460 13.94190660
   4.27296787  8.54499292 11.77822113
   6.40939535  6.40899491 11.78352966
   4.27305681  2.13652841  9.63652841
   6.40958522  4.27305681  9.63652841
   4.27305681  4.27305681  7.50000000
   6.40958522  2.13652841  7.50000000
   4.27213353  2.13532643 13.94316479
   6.40690294  4.27072724 13.95820330
   4.27335630  4.27294090 11.77748085
   6.41003392  2.13815014 11.77738447



--------------------------------------------------------------------------------------------------------

--------------------------------------- Iteration      FINAL  ---------------------------------------


--------------------OUTCAR has been truncated-------------------------


--------------------OUTCAR has been truncated-------------------------


--------------------OUTCAR has been truncated-------------------------


--------------------OUTCAR has been truncated-------------------------


--------------------OUTCAR has been truncated-------------------------


--------------------OUTCAR has been truncated-------------------------


--------------------OUTCAR has been truncated-------------------------


--------------------OUTCAR has been truncated-------------------------


--------------------OUTCAR has been truncated-------------------------


--------------------OUTCAR has been truncated-------------------------



 VOLUME and BASIS-vectors are now :
 -----------------------------------------------------------------------------
  energy-cutoff  :      600.00
  volume of cell :     1563.67
      direct lattice vectors                 reciprocal lattice vectors
     8.546113626  0.000000000  0.000000000     0.117012252  0.000000000  0.000000000
     0.000000000  8.546113626  0.000000000     0.000000000  0.117012252  0.000000000
     0.000000000  0.000000000 21.409585219     0.000000000  0.000000000  0.046708051

  length of vectors
     8.546113626  8.546113626 21.409585219     0.117012252  0.117012252  0.046708051


 FORCES acting on ions:
    Electron-Ion                     Ewald-Force                    Non-Local-Force
 -----------------------------------------------------------------------------------------------
   0.998E-01 0.175E-01 0.201E+04   -.102E+00 -.179E-01 -.200E+04   0.146E-02 0.240E-03 -.670E+01
   -.148E-01 0.839E-01 0.201E+04   0.155E-01 -.855E-01 -.200E+04   -.392E-03 0.101E-02 -.670E+01
   0.395E+00 0.387E+00 0.665E+03   -.392E+00 -.386E+00 -.665E+03   -.248E-02 -.973E-03 0.428E+00
   -.956E-01 0.193E-01 0.664E+03   0.120E+00 -.931E-02 -.665E+03   -.146E-01 -.640E-02 0.416E+00
   0.877E+00 0.319E+00 -.669E+03   -.950E+00 -.316E+00 0.669E+03   0.618E-01 -.582E-02 -.336E+00
   -.281E+00 0.465E+00 -.669E+03   0.275E+00 -.459E+00 0.669E+03   0.823E-02 -.281E-02 -.236E+00
   0.181E+00 0.206E+00 -.200E+04   -.423E-01 -.677E-01 0.199E+04   -.963E-01 -.958E-01 0.596E+01
   -.138E+01 -.296E-01 -.199E+04   0.148E+01 0.590E-01 0.199E+04   -.474E-01 -.218E-01 0.588E+01
   0.838E-01 -.173E-01 0.201E+04   -.853E-01 0.179E-01 -.200E+04   0.934E-03 -.357E-03 -.670E+01
   -.138E-01 -.838E-01 0.201E+04   0.137E-01 0.854E-01 -.200E+04   0.100E-03 -.984E-03 -.670E+01
   0.471E+00 -.381E+00 0.664E+03   -.505E+00 0.384E+00 -.665E+03   0.202E-01 -.814E-03 0.443E+00
   -.409E-02 -.229E-01 0.665E+03   -.493E-02 0.120E-01 -.665E+03   0.588E-02 0.702E-02 0.413E+00
   0.461E+00 -.294E+00 -.669E+03   -.457E+00 0.291E+00 0.669E+03   -.209E-02 0.607E-02 -.237E+00
   -.141E+00 -.492E+00 -.667E+03   0.113E+00 0.483E+00 0.667E+03   0.292E-01 0.449E-02 -.286E+00
   0.192E+01 -.334E+00 -.199E+04   -.189E+01 0.193E+00 0.199E+04   -.540E-01 0.970E-01 0.592E+01
   0.704E-01 0.837E-01 -.200E+04   -.106E+00 -.121E+00 0.199E+04   0.259E-01 0.269E-01 0.593E+01
   -.985E-01 0.150E-01 0.201E+04   0.101E+00 -.153E-01 -.200E+04   -.182E-02 0.171E-03 -.671E+01
   0.153E-01 0.999E-01 0.201E+04   -.155E-01 -.102E+00 -.200E+04   0.163E-03 0.152E-02 -.670E+01
   -.382E+00 0.477E+00 0.664E+03   0.385E+00 -.512E+00 -.665E+03   -.138E-02 0.208E-01 0.441E+00
   0.104E+00 0.104E+00 0.663E+03   -.117E+00 -.119E+00 -.664E+03   0.879E-02 0.103E-01 0.487E+00
   -.103E+01 0.274E+00 -.672E+03   0.111E+01 -.251E+00 0.673E+03   -.630E-01 -.252E-01 -.246E+00
   0.305E+00 0.880E+00 -.668E+03   -.301E+00 -.953E+00 0.669E+03   -.710E-02 0.616E-01 -.343E+00
   -.325E+00 0.195E+01 -.199E+04   0.179E+00 -.192E+01 0.199E+04   0.988E-01 -.548E-01 0.592E+01
   0.258E+01 0.251E+01 -.200E+04   -.267E+01 -.260E+01 0.200E+04   -.137E-01 -.896E-02 0.604E+01
   -.834E-01 -.162E-01 0.201E+04   0.850E-01 0.161E-01 -.200E+04   -.102E-02 0.132E-03 -.670E+01
   0.128E-01 -.989E-01 0.201E+04   -.130E-01 0.102E+00 -.200E+04   0.914E-04 -.179E-02 -.671E+01
   -.466E+00 -.479E+00 0.664E+03   0.493E+00 0.504E+00 -.665E+03   -.169E-01 -.158E-01 0.432E+00
   0.743E-02 -.101E+00 0.664E+03   0.433E-02 0.125E+00 -.665E+03   -.738E-02 -.145E-01 0.417E+00
   -.487E+00 -.151E+00 -.667E+03   0.478E+00 0.125E+00 0.667E+03   0.435E-02 0.270E-01 -.281E+00
   0.263E+00 -.103E+01 -.672E+03   -.238E+00 0.111E+01 0.673E+03   -.270E-01 -.627E-01 -.239E+00
   -.261E+01 -.266E+01 -.199E+04   0.262E+01 0.267E+01 0.198E+04   0.569E-01 0.609E-01 0.582E+01
   -.129E-01 -.140E+01 -.199E+04   0.384E-01 0.150E+01 0.199E+04   -.203E-01 -.425E-01 0.588E+01
   0.334E+00 0.787E-01 0.498E+03   -.328E+00 -.808E-01 -.497E+03   -.682E-02 0.205E-02 -.105E+00
   -.627E-01 0.237E+00 0.498E+03   0.590E-01 -.240E+00 -.498E+03   0.446E-02 0.261E-02 -.974E-01
   0.651E-01 0.649E-01 0.151E+04   -.658E-01 -.656E-01 -.151E+04   0.848E-03 0.881E-03 0.305E+01
   -.152E-01 0.741E-02 0.151E+04   0.170E-01 -.630E-02 -.151E+04   -.218E-02 -.132E-02 0.305E+01
   0.561E+00 0.449E+00 -.151E+04   -.470E+00 -.494E+00 0.152E+04   -.115E+00 0.496E-01 -.413E+01
   -.377E+00 0.546E+00 -.151E+04   0.436E+00 -.590E+00 0.152E+04   -.660E-01 0.394E-01 -.434E+01
   0.369E+00 0.373E+00 -.496E+03   -.362E+00 -.368E+00 0.496E+03   -.133E-01 -.115E-01 0.290E+00
   -.432E+00 -.458E-01 -.496E+03   0.456E+00 0.424E-01 0.496E+03   -.309E-01 0.201E-02 0.308E+00
   0.241E+00 -.735E-01 0.498E+03   -.245E+00 0.718E-01 -.498E+03   0.505E-02 0.223E-02 -.972E-01
   -.687E-01 -.239E+00 0.498E+03   0.794E-01 0.242E+00 -.498E+03   -.117E-01 -.391E-02 -.746E-01
   0.741E-01 -.650E-01 0.151E+04   -.777E-01 0.656E-01 -.151E+04   0.440E-02 -.762E-03 0.305E+01
   -.535E-02 -.748E-02 0.151E+04   0.421E-02 0.640E-02 -.151E+04   0.137E-02 0.129E-02 0.305E+01
   0.528E+00 -.367E+00 -.151E+04   -.568E+00 0.423E+00 0.152E+04   0.348E-01 -.613E-01 -.433E+01
   0.219E+00 -.602E+00 -.151E+04   -.233E+00 0.652E+00 0.152E+04   0.249E-03 -.462E-01 -.433E+01
   0.870E+00 -.387E+00 -.497E+03   -.878E+00 0.380E+00 0.496E+03   0.101E-01 0.125E-01 0.294E+00
   0.563E-01 0.496E-01 -.496E+03   -.466E-01 -.420E-01 0.496E+03   -.915E-02 -.666E-02 0.220E+00
   -.313E+00 0.614E-01 0.497E+03   0.294E+00 -.623E-01 -.497E+03   0.218E-01 0.642E-03 -.138E+00
   0.752E-01 0.331E+00 0.498E+03   -.799E-01 -.324E+00 -.497E+03   0.503E-02 -.870E-02 -.104E+00
   -.653E-01 0.749E-01 0.151E+04   0.658E-01 -.785E-01 -.151E+04   -.566E-03 0.431E-02 0.305E+01
   0.143E-01 0.155E-01 0.151E+04   -.165E-01 -.178E-01 -.151E+04   0.269E-02 0.275E-02 0.305E+01
   -.173E+01 0.600E+00 -.152E+04   0.182E+01 -.758E+00 0.152E+04   -.547E-01 0.175E+00 -.444E+01
   0.460E+00 0.603E+00 -.151E+04   -.504E+00 -.514E+00 0.152E+04   0.491E-01 -.113E+00 -.412E+01
   -.391E+00 0.887E+00 -.496E+03   0.386E+00 -.897E+00 0.496E+03   0.111E-01 0.128E-01 0.299E+00
   0.517E+00 0.520E+00 -.501E+03   -.534E+00 -.536E+00 0.501E+03   0.239E-01 0.235E-01 0.626E-01
   -.234E+00 -.787E-01 0.498E+03   0.235E+00 0.910E-01 -.498E+03   -.102E-02 -.136E-01 -.744E-01
   0.583E-01 -.318E+00 0.497E+03   -.617E-01 0.301E+00 -.497E+03   0.344E-02 0.195E-01 -.138E+00
   -.733E-01 -.739E-01 0.151E+04   0.772E-01 0.779E-01 -.151E+04   -.474E-02 -.480E-02 0.305E+01
   0.508E-02 -.163E-01 0.151E+04   -.405E-02 0.183E-01 -.151E+04   -.123E-02 -.235E-02 0.305E+01
   -.597E+00 0.228E+00 -.151E+04   0.648E+00 -.243E+00 0.152E+04   -.472E-01 0.293E-02 -.434E+01
   0.583E+00 -.170E+01 -.152E+04   -.740E+00 0.179E+01 0.152E+04   0.175E+00 -.557E-01 -.444E+01
   -.940E+00 -.951E+00 -.495E+03   0.947E+00 0.958E+00 0.495E+03   -.947E-02 -.940E-02 0.412E+00
   -.618E-01 -.433E+00 -.496E+03   0.594E-01 0.453E+00 0.496E+03   0.114E-02 -.282E-01 0.307E+00
 -----------------------------------------------------------------------------------------------
   0.835E-01 0.567E-01 0.162E+02   -.623E-12 -.950E-13 -.227E-12   -.743E-01 -.507E-01 -.137E+02


 POSITION                                       TOTAL-FORCE (eV/Angst)
 -----------------------------------------------------------------------------------
      0.00000      6.40959      7.50000        -0.000571     -0.000114      0.749414
      2.13653      0.00000      7.50000         0.000146     -0.000454      0.750047
      0.00000      0.00000      9.63653         0.000701     -0.000081      0.033272
      2.13653      6.40959      9.63653         0.006926      0.002587      0.039479
      8.54505      6.41027     11.78569        -0.004023     -0.003290     -0.035991
      2.13675      8.54582     11.78278         0.002859      0.002604     -0.010408
      0.00200      0.00148     13.90659         0.028623      0.028152     -0.405390
      2.13550      6.40940     13.90451         0.049580      0.004512     -0.360712
      0.00000      2.13653      7.50000        -0.000422      0.000137      0.749959
      2.13653      4.27306      7.50000        -0.000020      0.000435      0.748367
      0.00000      4.27306      9.63653        -0.009596      0.001079      0.034018
      2.13653      2.13653      9.63653        -0.002231     -0.002856      0.033606
      0.00008      2.13641     11.78284         0.002217      0.003368     -0.010714
      2.13492      4.27314     11.78166         0.003866     -0.003437     -0.015510
      0.00215      4.27325     13.90563        -0.025165     -0.030146     -0.378413
      2.13628      2.13574     13.90748        -0.005961     -0.006490     -0.401319
      4.27306      6.40959      7.50000         0.000676     -0.000101      0.752025
      6.40959      0.00000      7.50000        -0.000092     -0.000598      0.749233
      4.27306      0.00000      9.63653         0.001497     -0.010057      0.033931
      6.40959      6.40959      9.63653        -0.003154     -0.003849      0.043110
      4.27600      6.41004     11.78719         0.003247     -0.004412     -0.007139
      6.41070      8.54472     11.78564        -0.003581     -0.003758     -0.036142
      4.27386      0.00175     13.90498        -0.031788     -0.025513     -0.374737
      6.41771      6.41719     13.93082        -0.096661     -0.095770     -0.524785
      4.27306      2.13653      7.50000         0.000440     -0.000027      0.748254
      6.40959      4.27306      7.50000        -0.000086      0.000689      0.752041
      4.27306      4.27306      9.63653         0.007225      0.006627      0.037875
      6.40959      2.13653      9.63653         0.003191      0.006691      0.039426
      4.27355      2.13465     11.78158        -0.003902      0.004097     -0.015202
      6.41047      4.27566     11.78719        -0.004873      0.003604     -0.006993
      4.26567      4.26503     13.89416         0.070358      0.071593     -0.277914
      6.41004      2.13502     13.90468         0.002612      0.049465     -0.362005
      0.00000      6.40959      9.63653        -0.002195      0.000350      0.048227
      2.13653      0.00000      9.63653         0.001595      0.000810      0.037418
      0.00000      0.00000      7.50000         0.000296      0.000299     -0.258144
      2.13653      6.40959      7.50000        -0.000753     -0.000444     -0.258386
      0.00519      6.41035     13.94249        -0.045439      0.013306     -0.108936
      2.13780      0.00067     13.94850        -0.018125      0.001379     -0.186588
      0.00140      0.00098     11.77736        -0.009124     -0.008374      0.014687
      2.13837      6.40968     11.77734        -0.013033     -0.001104      0.011674
      0.00000      2.13653      9.63653         0.001513      0.000943      0.037756
      2.13653      4.27306      9.63653        -0.003200     -0.001212      0.040883
      0.00000      4.27306      7.50000         0.001503     -0.000266     -0.258421
      2.13653      2.13653      7.50000         0.000463      0.000441     -0.257465
      0.00124      2.13723     13.94848         0.000201     -0.016737     -0.185032
      2.13588      4.27157     13.94287        -0.014261     -0.003710     -0.170717
      8.54525      4.27264     11.77838         0.004252      0.008540      0.005248
      2.13663      2.13623     11.77712        -0.000940     -0.000192      0.000406
      4.27306      6.40959      9.63653         0.006576     -0.000121      0.042850
      6.40959      0.00000      9.63653         0.001213     -0.002712      0.048360
      4.27306      0.00000      7.50000        -0.000210      0.001472     -0.258390
      6.40959      6.40959      7.50000         0.000919      0.000946     -0.259543
      4.27102      6.40657     13.95774         0.025861      0.047436     -0.227682
      6.41089      0.00480     13.94191         0.013172     -0.045880     -0.106221
      4.27297      8.54499     11.77822         0.008431      0.004397      0.005080
      6.40940      6.40899     11.78353         0.011778      0.012121     -0.002232
      4.27306      2.13653      9.63653        -0.000376     -0.003736      0.040604
      6.40959      4.27306      9.63653         0.000684      0.005917      0.042655
      4.27306      4.27306      7.50000        -0.001648     -0.001658     -0.258499
      6.40959      2.13653      7.50000        -0.000434     -0.000813     -0.258350
      4.27213      2.13533     13.94316        -0.003840     -0.013313     -0.173046
      6.40690      4.27073     13.95820         0.048614      0.024084     -0.229079
      4.27336      4.27294     11.77748        -0.004399     -0.003914     -0.001539
      6.41003      2.13815     11.77738        -0.001130     -0.012940      0.011740
 -----------------------------------------------------------------------------------
    total drift:                                0.000768      0.000211     -0.000370


--------------------------------------------------------------------------------------------------------



  FREE ENERGIE OF THE ION-ELECTRON SYSTEM (eV)
  ---------------------------------------------------
  free  energy   TOTEN  =      -469.83963982 eV

  energy  without entropy=     -469.83963982  energy(sigma->0) =     -469.83963982



--------------------------------------------------------------------------------------------------------


    POTLOK:  cpu time      0.3849: real time      0.3849


--------------------------------------------------------------------------------------------------------


     LOOP+:  cpu time   3693.0022: real time   3693.8119
    4ORBIT:  cpu time      0.0000: real time      0.0000

 total amount of memory used by VASP MPI-rank0   190900. kBytes
=======================================================================

   base      :      30000. kBytes
   nonl-proj :      12294. kBytes
   fftplans  :       8029. kBytes
   grid      :       7379. kBytes
   one-center:         64. kBytes
   HF        :         67. kBytes
   nonlr-proj:       7054. kBytes
   wavefun   :       3870. kBytes
   fock_wrk  :     122143. kBytes

  
  
 General timing and accounting informations for this job:
 ========================================================
  
                  Total CPU time used (sec):     3745.876
                            User time (sec):     3737.230
                          System time (sec):        8.647
                         Elapsed time (sec):     3764.926
  
                   Maximum memory used (kb):      441776.
                   Average memory used (kb):          N/A
  
                          Minor page faults:       390392
                          Major page faults:            0
                 Voluntary context switches:        19558
