 **********************************************************************
                          MRCC program system
 **********************************************************************
 
                              Written by
     Mihaly Kallay, Peter R. Nagy, David Mester, Laszlo Gyevi-Nagy,
        Jozsef Csoka, P. Bernat Szabo, Zoltan Rolik, Gyula Samu,
     Jozsef Csontos, Bence Hegely, Adam Ganyecz, Istvan Ladjanszki,
       Lorant Szegedy, Bence Ladoczki, Klara Petrov, Mate Farkas,
                    Pal D. Mezei, and Reka A. Horvath
 
        Department of Physical Chemistry and Materials Science
            Budapest University of Technology and Economics
                  Budapest P.O.Box 91, H-1521 Hungary
 
                              www.mrcc.hu
 
                      Release date: March 18, 2022

 ************************ 2023-02-05 13:12:25 *************************
 Executing minp...

 Reading input from MINP...
 
 Input file:
 
calc=FNO-CCSD(T)
verbosity=3
mem=220GB
unit=angs
scfiguess=small
scfalg=locfit1
ccmaxit=400
ccsdalg=dfdirect
ccsdthreads=4
ccsdmkl=thr
ptthreads=4
lnoepsv=1e-5
naf_cor=1e-2
basis=aug-cc-pVQZ
basis_sm=def2-SVP
dfbasis_scf=def2-QZVPP-RI-JK
dfbasis_cor=aug-cc-pVQZ-RI
unit=angs
geom=xyz
16

C    34.41670262    34.07107264    10.41543014
C    33.11117461    33.45680459    10.91530835
H    34.24160149    35.00442132     9.86225048
H    34.94674030    33.36940783     9.75379242
H    35.10002891    34.30603621    11.24227357
H    32.42643037    33.26105434    10.07939442
H    32.59136835    34.12756100    11.61262818
H    33.28915165    32.50678735    11.43686767
C    34.41672034    29.85060628    10.41548088
C    33.11116301    29.23631074    10.91529140
H    34.24151778    30.78404540     9.86250154
H    34.94669279    29.14873389     9.75399090
H    35.10030311    30.08569049    11.24209422
H    32.42628860    29.04041272    10.07951373
H    32.59132561    29.90724332    11.61243196
H    33.28922462    28.28620799    11.43663402

--------------------Output has been truncated-------------------------


--------------------Output has been truncated-------------------------


--------------------Output has been truncated-------------------------


--------------------Output has been truncated-------------------------


--------------------Output has been truncated-------------------------


--------------------Output has been truncated-------------------------


--------------------Output has been truncated-------------------------


--------------------Output has been truncated-------------------------


--------------------Output has been truncated-------------------------


--------------------Output has been truncated-------------------------


 
 Reference energy [au]:                       -79.264446241988
 DF-MP2 singlet pair energy [au]:              -0.317807042844
 DF-MP2 triplet pair energy [au]:              -0.076913474736
 DF-SCS-MP2 correlation energy [au]:           -0.407006276325
 DF-SCS-MP2 energy [au]:                      -79.671452518313
 DF-SOS-MP2 correlation energy [au]:           -0.413149155698
 DF-SOS-MP2 energy [au]:                      -79.677595397686
 DF-MP2 correlation energy [au]:               -0.394720517580
 DF-MP2 energy [au]:                          -79.659166759568

 Results in FNO basis:
 
 
 Reference energy [au]:                       -79.264446241988
 DF-MP2 singlet pair energy [au]:              -0.312583854840
 DF-MP2 triplet pair energy [au]:              -0.076623895422
 DF-SCS-MP2 correlation energy [au]:           -0.400641924282
 DF-SCS-MP2 energy [au]:                      -79.665088166271
 DF-SOS-MP2 correlation energy [au]:           -0.406359011292
 DF-SOS-MP2 energy [au]:                      -79.670805253281
 DF-MP2 correlation energy [au]:               -0.389207750262
 DF-MP2 energy [au]:                          -79.653653992250

 Results in NAF basis:
 
 
 Reference energy [au]:                       -79.264446241988
 DF-MP2 singlet pair energy [au]:              -0.312563017332
 DF-MP2 triplet pair energy [au]:              -0.076631881907
 DF-SCS-MP2 correlation energy [au]:           -0.400619581434
 DF-SCS-MP2 energy [au]:                      -79.665065823423
 DF-SOS-MP2 correlation energy [au]:           -0.406331922532
 DF-SOS-MP2 energy [au]:                      -79.670778164520
 DF-MP2 correlation energy [au]:               -0.389194899239
 DF-MP2 energy [au]:                          -79.653641141228

 ************************ 2023-02-05 13:14:24 *************************
 Executing ccsd...

 Allocation of 220.0 Gbytes of memory...

 Direct DF-CCSD(T) calculation
 
 Convergence criterion:  1.0E-06
 
 Number of occupied/virtual/auxiliary orbitals:     7   175   554
    852.05 MB is the minimal memory requirement for (T)
    191.21 MB is the minimal memory requirement for CCSD
 
 Reference energy [au]:             -79.264446241988
 T1 contribution [au]:                0.000000000000
 Same spin MP2 energy [au]:          -0.076627886218
 Opposite spin MP2 energy [au]:      -0.312573431558
 MP2 correlation energy [au]:        -0.389201317776
 Total MP2 energy [au]:             -79.653647559764
 MP2 correction [au]:                -0.005519199804
 
 
 CPU time [min]:     0.392                   Wall time [min]:     0.040
 
 Starting CCSD iterations...
 
                     Residual norm          Energy
 Iteration  1        0.179607675141      -79.671552842020
 Iteration  2        0.044514481397      -79.681134373480
 Iteration  3        0.013092851819      -79.682270672344
 Iteration  4        0.002650332233      -79.682277870965
 Iteration  5        0.000560986003      -79.682283737500
 Iteration  6        0.000156932850      -79.682285788636
 Iteration  7        0.000037094359      -79.682285563213
 Iteration  8        0.000009998010      -79.682285927224
 
 CCSD iteration has converged in  8 steps.
     3805.68 MB memory was utilized by CCSD
 
 T1 diagnostic:      8.231E-03            D1 diagnostic:      1.428E-02
 
 T1 contribution [au]:                                  0.000000000000
 PPL energy contribution [au]:                          0.108955294570
 Scaled PPL energy contribution [au]:                   0.110510027994

 OS-PPL energy contribution [au]:                       0.095560923119
 Scaled OS-PPL energy contribution [au]:                0.097171059958
 SS-PPL energy contribution [au]:                       0.013394371451
 Scaled SS-PPL energy contribution [au]:                0.013443091319

 Opposite spin CCSD energy [au]:                       -0.345167761327
 Same spin CCSD energy [au]:                           -0.072679655537
 CCSD correlation energy [au]:                         -0.417847416864
 CCSD correlation energy + MP2 correction [au]:        -0.423366616668
 CCSD correlation energy + MP2 + PPL corr. [au]:       -0.421811883245
 Total CCSD energy [au]:                              -79.682293658853
 Total CCSD energy + MP2 correction [au]:             -79.687812858657
 Total CCSD energy + MP2 + PPL corr. [au]:            -79.686258125233
 
 CPU time [min]:     6.510                   Wall time [min]:     0.228
 
 Calculation of (T) correction...
 
 
      784.07 MB memory is utilized for (T)

 0%       25%       50%       75%       100%
 |---------|---------|---------|---------| 
 
 (T) correction [au]:                                    -0.014765404226
 (T*) correction [au]:                                   -0.014974789992
 (T+) correction [au]:                                   -0.014971226394
 CCSD(T) correlation energy [au]:                        -0.432612821091
 CCSD(T) correlation energy + MP2 correction [au]:       -0.438132020895
 CCSD(T+) correlation en. + MP2 + PPL corr. [au]:        -0.436783109638
 Total CCSD(T) energy [au]:                             -79.697059063079
 Total CCSD(T) energy + MP2 correction [au]:            -79.702578262883
 Total CCSD(T+) energy + MP2 + PPL corr. [au]:          -79.701229351627
 
 CPU time [min]:     8.242                   Wall time [min]:     0.294
 
 ************************ 2023-02-05 13:14:42 *************************
                      Normal termination of mrcc.
 **********************************************************************
