 vasp.6.4.2 20Jul23 (build Feb 22 2024 13:53:45) complex                         
 executed on              LinuxNV date 2024.08.28  02:52:59
 running    4 mpi-ranks, with    1 threads/rank, on    1 nodes
 distrk:  each k-point on    4 cores,    1 groups
 distr:  one band on NCORE=   1 cores,    4 groups
 OpenACC runtime initialized ...    4 GPUs detected


--------------------------------------------------------------------------------------------------------


 INCAR:
   SYSTEM = Oxide-Surface
   ISMEAR = 0
   SIGMA = 0.05
   EDIFF = 1E-5
   ALGO = Normal
   IBRION = -1
   NSW = 0
   ISYM = 0
   DIPOL = 0.5 0.5 0.5
   IDIPOL = 3
   LDIPOL = .TRUE.
   ISTART = 1
   GGA = PE
   IVDW = 11
   ENCUT = 1000
   PREC = Normal
   PRECFOCK = Normal
   LASPH = .TRUE.
   LREAL = Auto
   ISPIN = 1
   NELM = 200
   NELMIN = 8
   NCORE = 1
   KPAR = 1
   LWAVE = .FALSE.
   LCHARG = .FALSE.

 POTCAR:    PAW_PBE Ti_sv 26Sep2005               
 POTCAR:    PAW_PBE O_h 06Feb2004                 
 POTCAR:    PAW_PBE Ti_sv 26Sep2005               
   SHA256 =  4d747badb5a5ea28d858fbac70885b3f8929d6fd9e5b0dbe1ecb9878dc164da1 Ti_sv/POTCAR          
   COPYR  = (c) Copyright 26Sep2005 Georg Kresse                                                    
   COPYR  = This file is part of the software VASP. Any use, copying, and all other rights are regul
   COPYR  = If you do not have a valid VASP license, you may not use, copy or distribute this file. 
   VRHFIN =Ti: 3p4s3d                                                                               
   LEXCH  = PE                                                                                      
   EATOM  =  1588.0892 eV,  116.7213 Ry                                                             
                                                                                                    
   TITEL  = PAW_PBE Ti_sv 26Sep2005                                                                 
   LULTRA =        F    use ultrasoft PP ?                                                          
   IUNSCR =        1    unscreen: 0-lin 1-nonlin 2-no                                               
   RPACOR =    2.000    partial core radius                                                         
   POMASS =   47.880; ZVAL   =   12.000    mass and valenz                                          
   RCORE  =    2.300    outmost cutoff radius                                                       
   RWIGS  =    2.300; RWIGS  =    1.217    wigner-seitz radius (au A)                               
   ENMAX  =  274.610; ENMIN  =  205.957 eV                                                          
   ICORE  =        3    local potential                                                             
   LCOR   =        T    correct aug charges                                                         
   LPAW   =        T    paw PP                                                                      
   EAUG   =  482.848                                                                                
   RMAX   =    2.348    core radius for proj-oper                                                   
   RAUG   =    1.300    factor for augmentation sphere                                              
   RDEP   =    2.381    radius for radial grids                                                     
   RDEPT  =    1.930    core radius for aug-charge                                                  
                                                                                                    
   Atomic configuration                                                                             
    8 entries                                                                                       
     n  l   j            E        occ.                                                              
     1  0  0.50     -4865.3608   2.0000                                                             
     2  0  0.50      -533.1368   2.0000                                                             
     2  1  1.50      -440.5031   6.0000                                                             
     3  0  0.50       -59.3186   2.0000                                                             
     4  0  0.50        -3.7291   1.0000                                                             
     3  1  1.50       -35.7012   6.0000                                                             
     3  2  2.50        -1.9157   3.0000                                                             
     4  3  2.50        -1.3606   0.0000                                                             
   Description                                                                                      
     l       E           TYP  RCUT    TYP  RCUT                                                     
     0    -59.3185931     23  1.800                                                                 
     0     -3.7290822     23  2.300                                                                 
     1    -35.7012045     23  2.300                                                                 
     1     -1.3605826     23  2.300                                                                 
     2     -1.9156920     23  2.300                                                                 
     2     -0.0236318     23  2.300                                                                 
     3     -1.3605826     23  2.300                                                                 
  local pseudopotential read in
  partial core-charges read in
  partial kinetic energy density read in
  atomic valenz-charges read in
  non local Contribution for L=            0  read in
    real space projection operators read in
  non local Contribution for L=            0  read in
    real space projection operators read in
  non local Contribution for L=            1  read in
    real space projection operators read in
  non local Contribution for L=            1  read in
    real space projection operators read in
  non local Contribution for L=            2  read in
    real space projection operators read in
  non local Contribution for L=            2  read in
    real space projection operators read in
    PAW grid and wavefunctions read in
 
   number of l-projection  operators is LMAX  =            6
   number of lm-projection operators is LMMAX =           18
 
 POTCAR:    PAW_PBE O_h 06Feb2004                 
   SHA256 =  7d3976308dcfb86c51a8aa000428ccf502aeca0a26316d98530ed0719b164db2 O_h/POTCAR            
   COPYR  = (c) Copyright 06Feb2004 Georg Kresse                                                    
   COPYR  = This file is part of the software VASP. Any use, copying, and all other rights are regul
   COPYR  = If you do not have a valid VASP license, you may not use, copy or distribute this file. 
   VRHFIN =O: s2p4                                                                                  
   LEXCH  = PE                                                                                      
   EATOM  =   432.3788 eV,   31.7789 Ry                                                             
                                                                                                    
   TITEL  = PAW_PBE O_h 06Feb2004                                                                   
   LULTRA =        F    use ultrasoft PP ?                                                          
   IUNSCR =        1    unscreen: 0-lin 1-nonlin 2-no                                               
   RPACOR =    0.800    partial core radius                                                         
   POMASS =   16.000; ZVAL   =    6.000    mass and valenz                                          
   RCORE  =    1.100    outmost cutoff radius                                                       
   RWIGS  =    1.400; RWIGS  =    0.741    wigner-seitz radius (au A)                               
   ENMAX  =  700.000; ENMIN  =  500.000 eV                                                          
   ICORE  =        2    local potential                                                             
   LCOR   =        T    correct aug charges                                                         
   LPAW   =        T    paw PP                                                                      
   EAUG   =  888.804                                                                                
   DEXC   =    0.000                                                                                
   RMAX   =    1.128    core radius for proj-oper                                                   
   RAUG   =    1.300    factor for augmentation sphere                                              
   RDEP   =    1.125    radius for radial grids                                                     
   RDEPT  =    1.088    core radius for aug-charge                                                  
                                                                                                    
   Atomic configuration                                                                             
    4 entries                                                                                       
     n  l   j            E        occ.                                                              
     1  0  0.50      -514.6923   2.0000                                                             
     2  0  0.50       -23.9615   2.0000                                                             
     2  1  0.50        -9.0305   4.0000                                                             
     3  2  1.50        -9.5241   0.0000                                                             
   Description                                                                                      
     l       E           TYP  RCUT    TYP  RCUT                                                     
     0    -23.9615319     23  1.100                                                                 
     0    -25.3221145     23  1.100                                                                 
     1     -9.0304911     23  1.100                                                                 
     1     -5.4802209     23  1.100                                                                 
     2     -9.5240782      7  1.100                                                                 
  local pseudopotential read in
  partial core-charges read in
  partial kinetic energy density read in
  atomic valenz-charges read in
  non local Contribution for L=            0  read in
    real space projection operators read in
  non local Contribution for L=            0  read in
    real space projection operators read in
  non local Contribution for L=            1  read in
    real space projection operators read in
  non local Contribution for L=            1  read in
    real space projection operators read in
    PAW grid and wavefunctions read in
 
   number of l-projection  operators is LMAX  =            4
   number of lm-projection operators is LMMAX =            8
 
 Optimization of the real space projectors (new method)

 maximal supplied QI-value         = 16.25
 optimisation between [QCUT,QGAM] = [ 16.09, 32.34] = [ 72.49,292.89] Ry 
 Optimized for a Real-space Cutoff    1.24 Angstroem

   l    n(q)    QCUT    max X(q) W(low)/X(q) W(high)/X(q)  e(spline) 
   0     12    16.089    12.277    0.23E-04    0.54E-05    0.15E-06
   0     12    16.089    11.419    0.26E-04    0.82E-06    0.19E-06
   1     12    16.089     4.010    0.40E-04    0.12E-04    0.58E-06
   1     12    16.089     6.182    0.55E-05    0.28E-04    0.27E-06
   2     11    16.089    47.177    0.17E-03    0.26E-03    0.90E-06
   2     11    16.089    42.437    0.17E-03    0.25E-03    0.88E-06
 Optimization of the real space projectors (new method)

 maximal supplied QI-value         = 34.20
 optimisation between [QCUT,QGAM] = [ 16.08, 32.15] = [ 72.37,289.48] Ry 
 Optimized for a Real-space Cutoff    0.71 Angstroem

   l    n(q)    QCUT    max X(q) W(low)/X(q) W(high)/X(q)  e(spline) 
   0      7    16.076   280.207    0.42E-03    0.69E-03    0.60E-07
   0      7    16.076   228.978    0.42E-03    0.69E-03    0.61E-07
   1      6    16.076    86.127    0.11E-03    0.66E-03    0.10E-06
   1      6    16.076    65.368    0.11E-03    0.65E-03    0.10E-06
  PAW_PBE Ti_sv 26Sep2005               :
 energy of atom  1       EATOM=-1588.0892
 kinetic energy error for atom=    0.0004 (will be added to EATOM!!)
  PAW_PBE O_h 06Feb2004                 :
 energy of atom  2       EATOM= -432.3788
 kinetic energy error for atom=    0.0171 (will be added to EATOM!!)
 
 
 POSCAR: Ti  O
  positions in direct lattice
  No initial velocities read in
 exchange correlation table for  LEXCH =        8
   RHO(1)=    0.500       N(1)  =     2000
   RHO(2)=  100.500       N(2)  =     4000
 


--------------------------------------------------------------------------------------------------------


 ion  position               nearest neighbor table
   1  0.750  0.625  0.207-  82 1.95 142 1.95 141 1.95  81 1.95  84 1.98 163 1.98
   2  0.000  0.750  0.207-  84 1.95 104 1.95 103 1.95  83 1.95  85 1.98
   3  0.000  0.625  0.337-  85 1.95 145 1.95  86 1.95 146 1.95  87 1.98  88 1.98
   4  0.750  0.750  0.337-  87 1.95 107 1.95 168 1.95 188 1.95  82 1.98  89 1.98
   5  0.750  0.625  0.467-  89 1.95  90 1.95 149 1.95 150 1.95  92 1.98 171 1.98
   6  0.000  0.750  0.467-  92 1.95 112 1.95 111 1.95  91 1.95  86 1.98  93 2.00
   7  1.000  0.625  0.594-  93 1.89 153 1.90  95 1.95  96 1.95  94 2.02 154 2.02
   8  0.750  0.750  0.603-  97 1.86 196 1.97 176 1.97 115 1.97  95 1.97  90 2.11
   9  0.750  0.625  0.736-  98 1.83 158 1.84 179 2.03 100 2.03  97 2.10 157 2.10
  10  0.000  0.750  0.722-  94 1.81 119 1.95 120 1.95  99 1.95 100 1.95
  11  0.750  0.875  0.207-  82 1.95 102 1.95 101 1.95  81 1.95 104 1.98 183 1.98
  12  0.000  0.000  0.207- 104 1.95 124 1.95 123 1.95 103 1.95 105 1.98
  13  0.000  0.875  0.337-  85 1.95 105 1.95  86 1.95 106 1.95 107 1.98 108 1.98
  14  0.750  0.000  0.337- 107 1.95 127 1.95 188 1.95 208 1.95 102 1.98 109 1.98
  15  0.750  0.875  0.467-  89 1.95  90 1.95 109 1.95 110 1.95 112 1.98 191 1.98
  16  0.000  0.000  0.467- 112 1.95 132 1.95 131 1.95 111 1.95 106 1.98 113 2.00
  17  1.000  0.875  0.595-  93 1.89 113 1.89 115 1.95 116 1.95 114 2.02  94 2.02
  18  0.750  0.000  0.603- 117 1.86 216 1.97 196 1.97 135 1.97 115 1.97 110 2.11
  19  0.750  0.875  0.737- 118 1.83  98 1.83 199 2.03 120 2.03 117 2.10  97 2.10
  20  1.000  1.000  0.722- 114 1.81 140 1.95 139 1.95 120 1.95 119 1.95
  21  0.750  0.125  0.207- 102 1.95 122 1.95 121 1.95 101 1.95 124 1.98 203 1.98
  22  0.000  0.250  0.207- 124 1.95 144 1.95 143 1.95 123 1.95 125 1.98
  23  0.000  0.125  0.337- 105 1.95 125 1.95 106 1.95 126 1.95 127 1.98 128 1.98
  24  0.750  0.250  0.337- 127 1.95 147 1.95 208 1.95 228 1.95 122 1.98 129 1.98
  25  0.750  0.125  0.467- 109 1.95 110 1.95 129 1.95 130 1.95 132 1.98 211 1.98
  26  0.000  0.250  0.467- 132 1.95 152 1.95 151 1.95 131 1.95 126 1.98 133 2.00
  27  0.000  0.125  0.595- 113 1.89 133 1.89 136 1.95 135 1.95 114 2.02 134 2.02
  28  0.750  0.250  0.603- 137 1.86 216 1.97 236 1.97 135 1.97 155 1.97 130 2.11
  29  0.750  0.125  0.737- 118 1.83 138 1.83 219 2.03 140 2.03 137 2.10 117 2.10
  30  0.000  0.250  0.722- 134 1.81 139 1.95 140 1.95 159 1.95 160 1.95
  31  0.750  0.375  0.207- 122 1.95 142 1.95 141 1.95 121 1.95 144 1.98 223 1.98
  32  0.000  0.500  0.207-  84 1.95 144 1.95 143 1.95  83 1.95 145 1.98
  33  0.000  0.375  0.337- 125 1.95 145 1.95 126 1.95 146 1.95 147 1.98 148 1.98
  34  0.750  0.500  0.337-  87 1.95 147 1.95 168 1.95 228 1.95 142 1.98 149 1.98
  35  0.750  0.375  0.467- 129 1.95 130 1.95 149 1.95 150 1.95 152 1.98 231 1.98
  36  0.000  0.500  0.467-  92 1.95 152 1.95 151 1.95  91 1.95 146 1.98 153 2.00
  37  0.000  0.375  0.594- 133 1.89 153 1.89 156 1.95 155 1.95 134 2.02 154 2.02
  38  0.750  0.500  0.603- 157 1.86 236 1.97 176 1.97 155 1.97  95 1.97 150 2.11
  39  0.750  0.375  0.737- 138 1.83 158 1.83 239 2.03 160 2.03 157 2.10 137 2.10
  40  1.000  0.500  0.722- 154 1.81 160 1.95 159 1.95 100 1.95  99 1.95
  41  0.250  0.625  0.207- 162 1.95 222 1.95 221 1.95 161 1.95  83 1.98 164 1.98
  42  0.500  0.750  0.207- 163 1.95 164 1.95 183 1.95 184 1.95 165 1.98
  43  0.500  0.625  0.337- 165 1.95 225 1.95 166 1.95 226 1.95 168 1.98 167 1.98
  44  0.250  0.750  0.337-  88 1.95 108 1.95 167 1.95 187 1.95 162 1.98 169 1.98
  45  0.250  0.625  0.467- 169 1.95 170 1.95 229 1.95 230 1.95  91 1.98 172 1.98
  46  0.500  0.750  0.467- 171 1.95 172 1.95 191 1.95 192 1.95 166 1.98 173 2.00
  47  0.500  0.625  0.595- 233 1.90 173 1.90 175 1.95 176 1.95 174 2.01 234 2.01
  48  0.250  0.750  0.603- 177 1.86 195 1.97 175 1.97 116 1.97  96 1.97 170 2.11
  49  0.250  0.625  0.736- 178 1.83 238 1.84 180 2.03  99 2.03 177 2.10 237 2.10
  50  0.500  0.751  0.721- 174 1.81 199 1.94 200 1.94 179 1.95 180 1.95
  51  0.250  0.875  0.207- 162 1.95 182 1.95 181 1.95 161 1.95 103 1.98 184 1.98
  52  0.500  0.000  0.207- 183 1.95 184 1.95 203 1.95 204 1.95 185 1.98
  53  0.500  0.875  0.337- 165 1.95 185 1.95 166 1.95 186 1.95 188 1.98 187 1.98
  54  0.250  0.000  0.337- 108 1.95 128 1.95 187 1.95 207 1.95 182 1.98 189 1.98
  55  0.250  0.875  0.467- 169 1.95 170 1.95 189 1.95 190 1.95 111 1.98 192 1.98
  56  0.500  0.000  0.467- 191 1.95 192 1.95 211 1.95 212 1.95 186 1.98 193 1.99
  57  0.500  0.875  0.594- 173 1.89 193 1.90 195 1.95 196 1.95 174 2.01 194 2.02
  58  0.250  0.000  0.603- 197 1.86 215 1.97 195 1.97 136 1.97 116 1.97 190 2.11
  59  0.250  0.875  0.737- 198 1.83 178 1.83 200 2.03 119 2.03 197 2.10 177 2.10
  60  0.500  0.000  0.721- 194 1.81 200 1.94 199 1.94 220 1.95 219 1.95
  61  0.250  0.125  0.207- 182 1.95 202 1.95 201 1.95 181 1.95 123 1.98 204 1.98
  62  0.500  0.250  0.207- 203 1.95 204 1.95 223 1.95 224 1.95 205 1.98
  63  0.500  0.125  0.337- 185 1.95 205 1.95 186 1.95 206 1.95 208 1.98 207 1.98
  64  0.250  0.250  0.337- 128 1.95 148 1.95 207 1.95 227 1.95 202 1.98 209 1.98
  65  0.250  0.125  0.467- 189 1.95 190 1.95 209 1.95 210 1.95 131 1.98 212 1.98
  66  0.500  0.250  0.467- 211 1.95 212 1.95 231 1.95 232 1.95 206 1.98 213 2.00
  67  0.500  0.125  0.594- 213 1.89 193 1.90 216 1.95 215 1.95 214 2.01 194 2.02
  68  0.250  0.250  0.603- 217 1.86 215 1.97 235 1.97 136 1.97 156 1.97 210 2.11
  69  0.250  0.125  0.737- 198 1.83 218 1.83 220 2.03 139 2.03 217 2.10 197 2.10
  70  0.500  0.250  0.721- 214 1.81 239 1.94 240 1.94 219 1.95 220 1.95
  71  0.250  0.375  0.207- 202 1.95 222 1.95 221 1.95 201 1.95 143 1.98 224 1.98
  72  0.500  0.500  0.207- 163 1.95 164 1.95 223 1.95 224 1.95 225 1.98
  73  0.500  0.375  0.337- 205 1.95 225 1.95 206 1.95 226 1.95 228 1.98 227 1.98
  74  0.250  0.500  0.337-  88 1.95 148 1.95 167 1.95 227 1.95 222 1.98 229 1.98
  75  0.250  0.375  0.467- 209 1.95 210 1.95 229 1.95 230 1.95 151 1.98 232 1.98
  76  0.500  0.500  0.467- 171 1.95 172 1.95 231 1.95 232 1.95 226 1.98 233 2.00
  77  0.500  0.375  0.595- 233 1.89 213 1.90 236 1.95 235 1.95 234 2.01 214 2.02
  78  0.250  0.500  0.603- 237 1.86 235 1.97 175 1.97 156 1.97  96 1.97 230 2.11
  79  0.250  0.375  0.737- 218 1.83 238 1.83 240 2.03 159 2.03 237 2.10 217 2.10
  80  0.500  0.499  0.722- 234 1.82 240 1.94 239 1.94 180 1.96 179 1.96
  81  0.750  0.750  0.156-   1 1.95  11 1.95
  82  0.750  0.750  0.258-   1 1.95  11 1.95   4 1.98
  83  0.098  0.625  0.207-   2 1.95  32 1.95  41 1.98
  84  0.902  0.625  0.207-   2 1.95  32 1.95   1 1.98
  85  0.000  0.750  0.286-   3 1.95  13 1.95   2 1.98
  86  0.000  0.750  0.388-   3 1.95  13 1.95   6 1.98
  87  0.848  0.625  0.337-   4 1.95  34 1.95   3 1.98
  88  0.152  0.625  0.337-  44 1.95  74 1.95   3 1.98
  89  0.750  0.750  0.416-   5 1.95  15 1.95   4 1.98
  90  0.750  0.750  0.518-   5 1.95  15 1.95   8 2.11
  91  0.098  0.625  0.467-   6 1.95  36 1.95  45 1.98
  92  0.902  0.625  0.467-   6 1.95  36 1.95   5 1.98
  93  1.000  0.750  0.547-  17 1.89   7 1.89   6 2.00
  94  0.000  0.750  0.649-  10 1.81   7 2.02  17 2.02
  95  0.850  0.625  0.598-   7 1.95   8 1.97  38 1.97
  96  0.150  0.625  0.598-   7 1.95  48 1.97  78 1.97
  97  0.750  0.750  0.677-   8 1.86   9 2.10  19 2.10
  98  0.749  0.750  0.780-   9 1.83  19 1.83
  99  0.094  0.625  0.735-  40 1.95  10 1.95  49 2.03
 100  0.906  0.625  0.735-  40 1.95  10 1.95   9 2.03
 101  0.750  0.000  0.156-  11 1.95  21 1.95
 102  0.750  0.000  0.258-  11 1.95  21 1.95  14 1.98
 103  0.098  0.875  0.207-   2 1.95  12 1.95  51 1.98
 104  0.902  0.875  0.207-   2 1.95  12 1.95  11 1.98
 105  0.000  0.000  0.286-  13 1.95  23 1.95  12 1.98
 106  0.000  0.000  0.388-  13 1.95  23 1.95  16 1.98
 107  0.848  0.875  0.337-   4 1.95  14 1.95  13 1.98
 108  0.152  0.875  0.337-  44 1.95  54 1.95  13 1.98
 109  0.750  0.000  0.416-  15 1.95  25 1.95  14 1.98
 110  0.750  0.000  0.518-  15 1.95  25 1.95  18 2.11
 111  0.098  0.875  0.467-   6 1.95  16 1.95  55 1.98
 112  0.902  0.875  0.467-   6 1.95  16 1.95  15 1.98
 113  1.000  0.000  0.547-  27 1.89  17 1.89  16 2.00
 114  1.000  1.000  0.649-  20 1.81  17 2.02  27 2.02
 115  0.850  0.875  0.598-  17 1.95   8 1.97  18 1.97
 116  0.150  0.875  0.598-  17 1.95  48 1.97  58 1.97
 117  0.750  0.000  0.677-  18 1.86  29 2.10  19 2.10
 118  0.750  1.000  0.780-  19 1.83  29 1.83
 119  0.094  0.875  0.735-  10 1.95  20 1.95  59 2.03
 120  0.906  0.875  0.735-  10 1.95  20 1.95  19 2.03
 121  0.750  0.250  0.156-  21 1.95  31 1.95
 122  0.750  0.250  0.258-  21 1.95  31 1.95  24 1.98
 123  0.098  0.125  0.207-  12 1.95  22 1.95  61 1.98
 124  0.902  0.125  0.207-  12 1.95  22 1.95  21 1.98
 125  0.000  0.250  0.286-  23 1.95  33 1.95  22 1.98
 126  0.000  0.250  0.388-  23 1.95  33 1.95  26 1.98
 127  0.848  0.125  0.337-  14 1.95  24 1.95  23 1.98
 128  0.152  0.125  0.337-  54 1.95  64 1.95  23 1.98
 129  0.750  0.250  0.416-  25 1.95  35 1.95  24 1.98
 130  0.750  0.250  0.518-  25 1.95  35 1.95  28 2.11
 131  0.098  0.125  0.467-  16 1.95  26 1.95  65 1.98
 132  0.902  0.125  0.467-  16 1.95  26 1.95  25 1.98
 133  1.000  0.250  0.547-  37 1.89  27 1.89  26 2.00
 134  1.000  0.250  0.649-  30 1.81  37 2.02  27 2.02
 135  0.850  0.125  0.598-  27 1.95  18 1.97  28 1.97
 136  0.150  0.125  0.598-  27 1.95  58 1.97  68 1.97
 137  0.750  0.250  0.677-  28 1.86  29 2.10  39 2.10
 138  0.750  0.250  0.780-  39 1.83  29 1.83
 139  0.094  0.125  0.735-  30 1.95  20 1.95  69 2.03
 140  0.906  0.125  0.735-  30 1.95  20 1.95  29 2.03
 141  0.750  0.500  0.156-   1 1.95  31 1.95
 142  0.750  0.500  0.258-   1 1.95  31 1.95  34 1.98
 143  0.098  0.375  0.207-  22 1.95  32 1.95  71 1.98
 144  0.902  0.375  0.207-  22 1.95  32 1.95  31 1.98
 145  0.000  0.500  0.286-   3 1.95  33 1.95  32 1.98
 146  0.000  0.500  0.388-   3 1.95  33 1.95  36 1.98
 147  0.848  0.375  0.337-  24 1.95  34 1.95  33 1.98
 148  0.152  0.375  0.337-  64 1.95  74 1.95  33 1.98
 149  0.750  0.500  0.416-   5 1.95  35 1.95  34 1.98
 150  0.750  0.500  0.518-   5 1.95  35 1.95  38 2.11
 151  0.098  0.375  0.467-  26 1.95  36 1.95  75 1.98
 152  0.902  0.375  0.467-  26 1.95  36 1.95  35 1.98
 153  1.000  0.500  0.547-  37 1.89   7 1.90  36 2.00
 154  0.000  0.500  0.649-  40 1.81   7 2.02  37 2.02
 155  0.850  0.375  0.598-  37 1.95  38 1.97  28 1.97
 156  0.150  0.375  0.598-  37 1.95  78 1.97  68 1.97
 157  0.751  0.500  0.677-  38 1.86   9 2.10  39 2.10
 158  0.749  0.500  0.780-  39 1.83   9 1.84
 159  0.094  0.375  0.735-  40 1.95  30 1.95  79 2.03
 160  0.906  0.375  0.735-  40 1.95  30 1.95  39 2.03
 161  0.250  0.750  0.156-  41 1.95  51 1.95
 162  0.250  0.750  0.258-  41 1.95  51 1.95  44 1.98
 163  0.598  0.625  0.207-  42 1.95  72 1.95   1 1.98
 164  0.402  0.625  0.207-  42 1.95  72 1.95  41 1.98
 165  0.500  0.750  0.286-  43 1.95  53 1.95  42 1.98
 166  0.500  0.750  0.388-  43 1.95  53 1.95  46 1.98
 167  0.348  0.625  0.337-  44 1.95  74 1.95  43 1.98
 168  0.652  0.625  0.337-   4 1.95  34 1.95  43 1.98
 169  0.250  0.750  0.416-  45 1.95  55 1.95  44 1.98
 170  0.250  0.750  0.518-  45 1.95  55 1.95  48 2.11
 171  0.598  0.625  0.467-  46 1.95  76 1.95   5 1.98
 172  0.402  0.625  0.467-  46 1.95  76 1.95  45 1.98
 173  0.500  0.750  0.547-  57 1.89  47 1.90  46 2.00
 174  0.500  0.750  0.649-  50 1.81  57 2.01  47 2.01
 175  0.350  0.625  0.598-  47 1.95  48 1.97  78 1.97
 176  0.650  0.625  0.598-  47 1.95   8 1.97  38 1.97
 177  0.250  0.750  0.677-  48 1.86  49 2.10  59 2.10
 178  0.251  0.750  0.780-  49 1.83  59 1.83
 179  0.594  0.626  0.734-  50 1.95  80 1.96   9 2.03
 180  0.406  0.626  0.734-  50 1.95  80 1.96  49 2.03
 181  0.250  0.000  0.156-  51 1.95  61 1.95
 182  0.250  0.000  0.258-  51 1.95  61 1.95  54 1.98
 183  0.598  0.875  0.207-  42 1.95  52 1.95  11 1.98
 184  0.402  0.875  0.207-  42 1.95  52 1.95  51 1.98
 185  0.500  0.000  0.286-  53 1.95  63 1.95  52 1.98
 186  0.500  0.000  0.388-  53 1.95  63 1.95  56 1.98
 187  0.348  0.875  0.337-  44 1.95  54 1.95  53 1.98
 188  0.652  0.875  0.337-   4 1.95  14 1.95  53 1.98
 189  0.250  0.000  0.416-  55 1.95  65 1.95  54 1.98
 190  0.250  0.000  0.518-  55 1.95  65 1.95  58 2.11
 191  0.598  0.875  0.467-  46 1.95  56 1.95  15 1.98
 192  0.402  0.875  0.467-  46 1.95  56 1.95  55 1.98
 193  0.500  1.000  0.547-  67 1.90  57 1.90  56 1.99
 194  0.500  0.000  0.649-  60 1.81  67 2.02  57 2.02
 195  0.350  0.875  0.598-  57 1.95  48 1.97  58 1.97
 196  0.650  0.875  0.598-  57 1.95   8 1.97  18 1.97
 197  0.250  0.000  0.677-  58 1.86  69 2.10  59 2.10
 198  0.250  1.000  0.780-  59 1.83  69 1.83
 199  0.594  0.875  0.734-  60 1.94  50 1.94  19 2.03
 200  0.406  0.875  0.734-  60 1.94  50 1.94  59 2.03
 201  0.250  0.250  0.156-  61 1.95  71 1.95
 202  0.250  0.250  0.258-  61 1.95  71 1.95  64 1.98
 203  0.598  0.125  0.207-  52 1.95  62 1.95  21 1.98
 204  0.402  0.125  0.207-  52 1.95  62 1.95  61 1.98
 205  0.500  0.250  0.286-  63 1.95  73 1.95  62 1.98
 206  0.500  0.250  0.388-  63 1.95  73 1.95  66 1.98
 207  0.348  0.125  0.337-  54 1.95  64 1.95  63 1.98
 208  0.652  0.125  0.337-  14 1.95  24 1.95  63 1.98
 209  0.250  0.250  0.416-  65 1.95  75 1.95  64 1.98
 210  0.250  0.250  0.518-  65 1.95  75 1.95  68 2.11
 211  0.598  0.125  0.467-  56 1.95  66 1.95  25 1.98
 212  0.402  0.125  0.467-  56 1.95  66 1.95  65 1.98
 213  0.500  0.250  0.547-  67 1.89  77 1.90  66 2.00
 214  0.500  0.250  0.649-  70 1.81  67 2.01  77 2.02
 215  0.350  0.125  0.598-  67 1.95  58 1.97  68 1.97
 216  0.650  0.125  0.598-  67 1.95  18 1.97  28 1.97
 217  0.250  0.250  0.677-  68 1.86  69 2.10  79 2.10
 218  0.250  0.250  0.780-  79 1.83  69 1.83
 219  0.594  0.125  0.735-  60 1.95  70 1.95  29 2.03
 220  0.406  0.125  0.735-  60 1.95  70 1.95  69 2.03
 221  0.250  0.500  0.156-  41 1.95  71 1.95
 222  0.250  0.500  0.258-  41 1.95  71 1.95  74 1.98
 223  0.598  0.375  0.207-  62 1.95  72 1.95  31 1.98
 224  0.402  0.375  0.207-  62 1.95  72 1.95  71 1.98
 225  0.500  0.500  0.286-  43 1.95  73 1.95  72 1.98
 226  0.500  0.500  0.388-  43 1.95  73 1.95  76 1.98
 227  0.348  0.375  0.337-  64 1.95  74 1.95  73 1.98
 228  0.652  0.375  0.337-  24 1.95  34 1.95  73 1.98
 229  0.250  0.500  0.416-  45 1.95  75 1.95  74 1.98
 230  0.250  0.500  0.518-  45 1.95  75 1.95  78 2.11
 231  0.598  0.375  0.467-  66 1.95  76 1.95  35 1.98
 232  0.402  0.375  0.467-  66 1.95  76 1.95  75 1.98
 233  0.500  0.500  0.547-  77 1.89  47 1.90  76 2.00
 234  0.500  0.500  0.650-  80 1.82  47 2.01  77 2.01
 235  0.350  0.375  0.598-  77 1.95  78 1.97  68 1.97
 236  0.650  0.375  0.598-  77 1.95  38 1.97  28 1.97
 237  0.249  0.500  0.677-  78 1.86  49 2.10  79 2.10
 238  0.251  0.500  0.780-  79 1.83  49 1.84
 239  0.594  0.374  0.734-  80 1.94  70 1.94  39 2.03
 240  0.406  0.374  0.734-  80 1.94  70 1.94  79 2.03
 

IMPORTANT INFORMATION: All symmetrisations will be switched off!
NOSYMM: (Re-)initialisation of all symmetry stuff for point group C_1.


----------------------------------------------------------------------------------------

                                     Primitive cell                                     

  volume of cell :    3846.0501

  direct lattice vectors                    reciprocal lattice vectors
    13.003980404  0.000000000  0.000000000     0.076899531  0.000000000  0.000000000
     0.000000000 11.830378115  0.000000000     0.000000000  0.084528152  0.000000000
     0.000000000  0.000000000 25.000000000     0.000000000  0.000000000  0.040000000

  length of vectors
    13.003980404 11.830378115 25.000000000     0.076899531  0.084528152  0.040000000

  position of ions in fractional coordinates (direct lattice)
     0.750000001  0.625007134  0.207156502
     0.000000001  0.750007134  0.207156502
     0.000000001  0.625007134  0.337196306
     0.750000001  0.750007134  0.337196306
     0.750000001  0.625007134  0.467236110
     0.000000001  0.750007134  0.467236110
     0.999999940  0.625019735  0.594495874
     0.750021777  0.750042649  0.602519744
     0.750003066  0.625106593  0.736329117
     0.000000017  0.750055336  0.721636960
     0.750000001  0.875007134  0.207156502
     0.000000001  0.000007134  0.207156502
     0.000000001  0.875007134  0.337196306
     0.750000001  0.000007134  0.337196306
     0.750000001  0.875007134  0.467236110
     0.000000001  0.000007134  0.467236110
     0.999999992  0.875016125  0.594511900
     0.749983713  0.000020009  0.602641880
     0.749876204  0.874999101  0.736742504
     0.999999990  0.999992866  0.721655188
     0.750000001  0.125007134  0.207156502
     0.000000001  0.250007134  0.207156502
     0.000000001  0.125007134  0.337196306
     0.750000001  0.250007134  0.337196306
     0.750000001  0.125007134  0.467236110
     0.000000001  0.250007134  0.467236110
     0.000000068  0.124993619  0.594519314
     0.750020774  0.249973997  0.602637838
     0.749936142  0.125016596  0.736711702
     0.000000016  0.249975627  0.721653239
     0.750000001  0.375007134  0.207156502
     0.000000001  0.500007134  0.207156502
     0.000000001  0.375007134  0.337196306
     0.750000001  0.500007134  0.337196306
     0.750000001  0.375007134  0.467236110
     0.000000001  0.500007134  0.467236110
     0.000000085  0.375001288  0.594499775
     0.750042568  0.499984211  0.602536198
     0.750059278  0.375078128  0.736676508
     0.999999994  0.500054051  0.721623319
     0.250000001  0.625007134  0.207156502
     0.500000001  0.750007134  0.207156502
     0.500000001  0.625007134  0.337196306
     0.250000001  0.750007134  0.337196306
     0.250000001  0.625007134  0.467236110
     0.500000001  0.750007134  0.467236110
     0.499999958  0.624730247  0.594857138
     0.249978089  0.750042641  0.602519742
     0.249996935  0.625106602  0.736329106
     0.500000014  0.750565443  0.721497564
     0.250000001  0.875007134  0.207156502
     0.500000001  0.000007134  0.207156502
     0.500000001  0.875007134  0.337196306
     0.250000001  0.000007134  0.337196306
     0.250000001  0.875007134  0.467236110
     0.500000001  0.000007134  0.467236110
     0.499999961  0.874836724  0.594348348
     0.250016352  0.000020035  0.602641885
     0.250123806  0.874999110  0.736742506
     0.499999994  0.000028314  0.721446822
     0.250000001  0.125007134  0.207156502
     0.500000001  0.250007134  0.207156502
     0.500000001  0.125007134  0.337196306
     0.250000001  0.250007134  0.337196306
     0.250000001  0.125007134  0.467236110
     0.500000001  0.250007134  0.467236110
     0.500000116  0.125118344  0.594335892
     0.249979427  0.249973961  0.602637845
     0.250063855  0.125016597  0.736711716
     0.500000008  0.249725847  0.721435851
     0.250000001  0.375007134  0.207156502
     0.500000001  0.500007134  0.207156502
     0.500000001  0.375007134  0.337196306
     0.250000001  0.500007134  0.337196306
     0.250000001  0.375007134  0.467236110
     0.500000001  0.500007134  0.467236110
     0.500000049  0.375289487  0.594761424
     0.249957424  0.499984217  0.602536191
     0.249940731  0.375078139  0.736676505
     0.499999992  0.499013626  0.722362845
     0.750000001  0.750007134  0.156181134
     0.750000001  0.750007134  0.258131870
     0.097999549  0.625007134  0.207156502
     0.902000453  0.625007134  0.207156502
     0.000000001  0.750007134  0.286220938
     0.000000001  0.750007134  0.388171674
     0.847999549  0.625007134  0.337196306
     0.152000453  0.625007134  0.337196306
     0.750000001  0.750007134  0.416260742
     0.750000001  0.750007134  0.518211478
     0.097999549  0.625007134  0.467236110
     0.902000453  0.625007134  0.467236110
     0.999999991  0.750032722  0.547107514
     0.000000007  0.749988590  0.649373498
     0.850229500  0.625039913  0.598099012
     0.149770495  0.625039912  0.598098998
     0.750354407  0.750136021  0.676982539
     0.749399845  0.749729632  0.779993545
     0.094084823  0.624992795  0.734685229
     0.905915178  0.624992797  0.734685231
     0.750000001  0.000007134  0.156181134
     0.750000001  0.000007134  0.258131870
     0.097999549  0.875007134  0.207156502
     0.902000453  0.875007134  0.207156502
     0.000000001  0.000007134  0.286220938
     0.000000001  0.000007134  0.388171674
     0.847999549  0.875007134  0.337196306
     0.152000453  0.875007134  0.337196306
     0.750000001  0.000007134  0.416260742
     0.750000001  0.000007134  0.518211478
     0.097999549  0.875007134  0.467236110
     0.902000453  0.875007134  0.467236110
     0.999999989  0.000017786  0.547117009
     0.999999998  0.999977930  0.649392900
     0.850226220  0.875037871  0.598140004
     0.149773767  0.875037876  0.598139988
     0.750146102  0.000030963  0.677066371
     0.750114645  0.999972688  0.780065376
     0.094082746  0.874936830  0.734654115
     0.905917256  0.874936825  0.734654115
     0.750000001  0.250007134  0.156181134
     0.750000001  0.250007134  0.258131870
     0.097999549  0.125007134  0.207156502
     0.902000453  0.125007134  0.207156502
     0.000000001  0.250007134  0.286220938
     0.000000001  0.250007134  0.388171674
     0.847999549  0.125007134  0.337196306
     0.152000453  0.125007134  0.337196306
     0.750000001  0.250007134  0.416260742
     0.750000001  0.250007134  0.518211478
     0.097999549  0.125007134  0.467236110
     0.902000453  0.125007134  0.467236110
     0.999999988  0.249985178  0.547119207
     0.999999999  0.250056206  0.649395368
     0.850239321  0.124974396  0.598164918
     0.149760665  0.124974396  0.598164907
     0.750370769  0.249880851  0.677039541
     0.749925547  0.250153595  0.780030592
     0.094040315  0.125040485  0.734624520
     0.905959686  0.125040488  0.734624521
     0.750000001  0.500007134  0.156181134
     0.750000001  0.500007134  0.258131870
     0.097999549  0.375007134  0.207156502
     0.902000453  0.375007134  0.207156502
     0.000000001  0.500007134  0.286220938
     0.000000001  0.500007134  0.388171674
     0.847999549  0.375007134  0.337196306
     0.152000453  0.375007134  0.337196306
     0.750000001  0.500007134  0.416260742
     0.750000001  0.500007134  0.518211478
     0.097999549  0.375007134  0.467236110
     0.902000453  0.375007134  0.467236110
     0.999999990  0.500001761  0.547106897
     0.000000002  0.500027429  0.649363622
     0.850230188  0.374990732  0.598121640
     0.149769789  0.374990719  0.598121622
     0.750521700  0.500040372  0.676980721
     0.748815269  0.500312766  0.779956824
     0.094086767  0.375130126  0.734707083
     0.905913229  0.375130125  0.734707080
     0.250000001  0.750007134  0.156181134
     0.250000001  0.750007134  0.258131870
     0.597999549  0.625007134  0.207156502
     0.402000453  0.625007134  0.207156502
     0.500000001  0.750007134  0.286220938
     0.500000001  0.750007134  0.388171674
     0.347999549  0.625007134  0.337196306
     0.652000453  0.625007134  0.337196306
     0.250000001  0.750007134  0.416260742
     0.250000001  0.750007134  0.518211478
     0.597999549  0.625007134  0.467236110
     0.402000453  0.625007134  0.467236110
     0.499999990  0.749725366  0.547123616
     0.500000010  0.750337516  0.649217562
     0.350111779  0.625003625  0.598265402
     0.649888213  0.625003624  0.598265385
     0.249645562  0.750136030  0.676982538
     0.250600157  0.749729626  0.779993542
     0.594194169  0.625591054  0.733945272
     0.405805813  0.625591045  0.733945238
     0.250000001  0.000007134  0.156181134
     0.250000001  0.000007134  0.258131870
     0.597999549  0.875007134  0.207156502
     0.402000453  0.875007134  0.207156502
     0.500000001  0.000007134  0.286220938
     0.500000001  0.000007134  0.388171674
     0.347999549  0.875007134  0.337196306
     0.652000453  0.875007134  0.337196306
     0.250000001  0.000007134  0.416260742
     0.250000001  0.000007134  0.518211478
     0.597999549  0.875007134  0.467236110
     0.402000453  0.875007134  0.467236110
     0.499999990  0.999972278  0.547009555
     0.499999999  0.000085999  0.649192031
     0.350118432  0.875018981  0.598138164
     0.649881561  0.875018988  0.598138152
     0.249853885  0.000030954  0.677066376
     0.249885347  0.999972689  0.780065385
     0.594206206  0.875344430  0.734248267
     0.405793794  0.875344428  0.734248275
     0.250000001  0.250007134  0.156181134
     0.250000001  0.250007134  0.258131870
     0.597999549  0.125007134  0.207156502
     0.402000453  0.125007134  0.207156502
     0.500000001  0.250007134  0.286220938
     0.500000001  0.250007134  0.388171674
     0.347999549  0.125007134  0.337196306
     0.652000453  0.125007134  0.337196306
     0.250000001  0.250007134  0.416260742
     0.250000001  0.250007134  0.518211478
     0.597999549  0.125007134  0.467236110
     0.402000453  0.125007134  0.467236110
     0.499999987  0.250266086  0.547098784
     0.500000000  0.249559827  0.649184563
     0.350103753  0.124998177  0.598129320
     0.649896221  0.124998185  0.598129298
     0.249629215  0.249880855  0.677039545
     0.250074450  0.250153604  0.780030596
     0.594165486  0.124876679  0.734508129
     0.405834515  0.124876682  0.734508137
     0.250000001  0.500007134  0.156181134
     0.250000001  0.500007134  0.258131870
     0.597999549  0.375007134  0.207156502
     0.402000453  0.375007134  0.207156502
     0.500000001  0.500007134  0.286220938
     0.500000001  0.500007134  0.388171674
     0.347999549  0.375007134  0.337196306
     0.652000453  0.375007134  0.337196306
     0.250000001  0.500007134  0.416260742
     0.250000001  0.500007134  0.518211478
     0.597999549  0.375007134  0.467236110
     0.402000453  0.375007134  0.467236110
     0.499999989  0.500017086  0.547217626
     0.500000011  0.499953341  0.649654396
     0.350114587  0.375008018  0.598287678
     0.649885402  0.375008014  0.598287661
     0.249478264  0.500040358  0.676980716
     0.251184733  0.500312778  0.779956819
     0.594380380  0.374268012  0.733667053
     0.405619620  0.374268018  0.733667050

  ion indices of the primitive-cell ions
   primitive index   ion index
                 1           1
                 2           2
                 3           3
                 4           4
                 5           5
                 6           6
                 7           7
                 8           8
                 9           9
                10          10
                11          11
                12          12
                13          13
                14          14
                15          15
                16          16
                17          17
                18          18
                19          19
                20          20
                21          21
                22          22
                23          23
                24          24
                25          25
                26          26
                27          27
                28          28
                29          29
                30          30
                31          31
                32          32
                33          33
                34          34
                35          35
                36          36
                37          37
                38          38
                39          39
                40          40
                41          41
                42          42
                43          43
                44          44
                45          45
                46          46
                47          47
                48          48
                49          49
                50          50
                51          51
                52          52
                53          53
                54          54
                55          55
                56          56
                57          57
                58          58
                59          59
                60          60
                61          61
                62          62
                63          63
                64          64
                65          65
                66          66
                67          67
                68          68
                69          69
                70          70
                71          71
                72          72
                73          73
                74          74
                75          75
                76          76
                77          77
                78          78
                79          79
                80          80
                81          81
                82          82
                83          83
                84          84
                85          85
                86          86
                87          87
                88          88
                89          89
                90          90
                91          91
                92          92
                93          93
                94          94
                95          95
                96          96
                97          97
                98          98
                99          99
               100         100
               101         101
               102         102
               103         103
               104         104
               105         105
               106         106
               107         107
               108         108
               109         109
               110         110
               111         111
               112         112
               113         113
               114         114
               115         115
               116         116
               117         117
               118         118
               119         119
               120         120
               121         121
               122         122
               123         123
               124         124
               125         125
               126         126
               127         127
               128         128
               129         129
               130         130
               131         131
               132         132
               133         133
               134         134
               135         135
               136         136
               137         137
               138         138
               139         139
               140         140
               141         141
               142         142
               143         143
               144         144
               145         145
               146         146
               147         147
               148         148
               149         149
               150         150
               151         151
               152         152
               153         153
               154         154
               155         155
               156         156
               157         157
               158         158
               159         159
               160         160
               161         161
               162         162
               163         163
               164         164
               165         165
               166         166
               167         167
               168         168
               169         169
               170         170
               171         171
               172         172
               173         173
               174         174
               175         175
               176         176
               177         177
               178         178
               179         179
               180         180
               181         181
               182         182
               183         183
               184         184
               185         185
               186         186
               187         187
               188         188
               189         189
               190         190
               191         191
               192         192
               193         193
               194         194
               195         195
               196         196
               197         197
               198         198
               199         199
               200         200
               201         201
               202         202
               203         203
               204         204
               205         205
               206         206
               207         207
               208         208
               209         209
               210         210
               211         211
               212         212
               213         213
               214         214
               215         215
               216         216
               217         217
               218         218
               219         219
               220         220
               221         221
               222         222
               223         223
               224         224
               225         225
               226         226
               227         227
               228         228
               229         229
               230         230
               231         231
               232         232
               233         233
               234         234
               235         235
               236         236
               237         237
               238         238
               239         239
               240         240

----------------------------------------------------------------------------------------

 
 
 KPOINTS: pymatgen v2020.8.13 with grid density = 

Automatic generation of k-mesh.
 Grid dimensions read from file:
 generate k-points for:    2    2    1

 Generating k-lattice:

  Cartesian coordinates                     Fractional coordinates (reciprocal lattice)
     0.038449766  0.000000000  0.000000000     0.500000000  0.000000000  0.000000000
     0.000000000  0.042264076  0.000000000     0.000000000  0.500000000  0.000000000
     0.000000000  0.000000000  0.040000000     0.000000000  0.000000000  1.000000000

  Length of vectors
     0.038449766  0.042264076  0.040000000

  Shift w.r.t. Gamma in fractional coordinates (k-lattice)
     0.000000000  0.000000000  0.000000000

 
 Subroutine IBZKPT returns following result:
 ===========================================
 
 Found      4 irreducible k-points:
 
 Following reciprocal coordinates:
            Coordinates               Weight
  0.000000  0.000000  0.000000      1.000000
  0.500000  0.000000  0.000000      1.000000
  0.000000  0.500000  0.000000      1.000000
  0.500000  0.500000  0.000000      1.000000
 
 Following cartesian coordinates:
            Coordinates               Weight
  0.000000  0.000000  0.000000      1.000000
  0.038450  0.000000  0.000000      1.000000
  0.000000  0.042264  0.000000      1.000000
  0.038450  0.042264  0.000000      1.000000
 


--------------------------------------------------------------------------------------------------------




 Dimension of arrays:
   k-points           NKPTS =      4   k-points in BZ     NKDIM =      4   number of bands    NBANDS=   1152
   number of dos      NEDOS =    301   number of ions     NIONS =    240
   non local maximal  LDIM  =      6   non local SUM 2l+1 LMDIM =     18
   total plane-waves  NPLWV = ******
   max r-space proj   IRMAX =   4319   max aug-charges    IRDMAX=  20711
   dimension x,y,z NGX =   108 NGY =   96 NGZ =  196
   dimension x,y,z NGXF=   216 NGYF=  192 NGZF=  392
   support grid    NGXF=   216 NGYF=  192 NGZF=  392
   ions per type =              80 160
   NGX,Y,Z   is equivalent  to a cutoff of  13.81, 13.49, 13.03 a.u.
   NGXF,Y,Z  is equivalent  to a cutoff of  27.61, 26.98, 26.07 a.u.

 SYSTEM =  Oxide-Surface                           
 POSCAR =  Ti  O                                   

    13.003980404 11.830378115 25.000000000     0.076899531  0.084528152  0.040000000


 
 old parameters found on file WAVECAR:
  energy-cutoff  :     1000.00
  volume of cell :     3846.05
      direct lattice vectors                 reciprocal lattice vectors
    13.003980404  0.000000000  0.000000000     0.076899531  0.000000000  0.000000000
     0.000000000 11.830378115  0.000000000     0.000000000  0.084528152  0.000000000
     0.000000000  0.000000000 25.000000000     0.000000000  0.000000000  0.040000000

  length of vectors

 
 k-points in units of 2pi/SCALE and weight: pymatgen v2020.8.13 with grid density = 
   0.00000000  0.00000000  0.00000000       0.250
   0.03844977  0.00000000  0.00000000       0.250
   0.00000000  0.04226408  0.00000000       0.250
   0.03844977  0.04226408  0.00000000       0.250
 
 k-points in reciprocal lattice and weights: pymatgen v2020.8.13 with grid density = 
   0.00000000  0.00000000  0.00000000       0.250
   0.50000000  0.00000000  0.00000000       0.250
   0.00000000  0.50000000  0.00000000       0.250
   0.50000000  0.50000000  0.00000000       0.250
 
 position of ions in fractional coordinates (direct lattice) 
   0.75000000  0.62500713  0.20715650
   0.00000000  0.75000713  0.20715650
   0.00000000  0.62500713  0.33719631
   0.75000000  0.75000713  0.33719631
   0.75000000  0.62500713  0.46723611
   0.00000000  0.75000713  0.46723611
   0.99999994  0.62501974  0.59449587
   0.75002178  0.75004265  0.60251974
   0.75000307  0.62510659  0.73632912
   0.00000002  0.75005534  0.72163696
   0.75000000  0.87500713  0.20715650
   0.00000000  0.00000713  0.20715650
   0.00000000  0.87500713  0.33719631
   0.75000000  0.00000713  0.33719631
   0.75000000  0.87500713  0.46723611
   0.00000000  0.00000713  0.46723611
   0.99999999  0.87501612  0.59451190
   0.74998371  0.00002001  0.60264188
   0.74987620  0.87499910  0.73674250
   0.99999999  0.99999287  0.72165519
   0.75000000  0.12500713  0.20715650
   0.00000000  0.25000713  0.20715650
   0.00000000  0.12500713  0.33719631
   0.75000000  0.25000713  0.33719631
   0.75000000  0.12500713  0.46723611
   0.00000000  0.25000713  0.46723611
   0.00000007  0.12499362  0.59451931
   0.75002077  0.24997400  0.60263784
   0.74993614  0.12501660  0.73671170
   0.00000002  0.24997563  0.72165324
   0.75000000  0.37500713  0.20715650
   0.00000000  0.50000713  0.20715650
   0.00000000  0.37500713  0.33719631
   0.75000000  0.50000713  0.33719631
   0.75000000  0.37500713  0.46723611
   0.00000000  0.50000713  0.46723611
   0.00000008  0.37500129  0.59449977
   0.75004257  0.49998421  0.60253620
   0.75005928  0.37507813  0.73667651
   0.99999999  0.50005405  0.72162332
   0.25000000  0.62500713  0.20715650
   0.50000000  0.75000713  0.20715650
   0.50000000  0.62500713  0.33719631
   0.25000000  0.75000713  0.33719631
   0.25000000  0.62500713  0.46723611
   0.50000000  0.75000713  0.46723611
   0.49999996  0.62473025  0.59485714
   0.24997809  0.75004264  0.60251974
   0.24999693  0.62510660  0.73632911
   0.50000001  0.75056544  0.72149756
   0.25000000  0.87500713  0.20715650
   0.50000000  0.00000713  0.20715650
   0.50000000  0.87500713  0.33719631
   0.25000000  0.00000713  0.33719631
   0.25000000  0.87500713  0.46723611
   0.50000000  0.00000713  0.46723611
   0.49999996  0.87483672  0.59434835
   0.25001635  0.00002004  0.60264188
   0.25012381  0.87499911  0.73674251
   0.49999999  0.00002831  0.72144682
   0.25000000  0.12500713  0.20715650
   0.50000000  0.25000713  0.20715650
   0.50000000  0.12500713  0.33719631
   0.25000000  0.25000713  0.33719631
   0.25000000  0.12500713  0.46723611
   0.50000000  0.25000713  0.46723611
   0.50000012  0.12511834  0.59433589
   0.24997943  0.24997396  0.60263784
   0.25006386  0.12501660  0.73671172
   0.50000001  0.24972585  0.72143585
   0.25000000  0.37500713  0.20715650
   0.50000000  0.50000713  0.20715650
   0.50000000  0.37500713  0.33719631
   0.25000000  0.50000713  0.33719631
   0.25000000  0.37500713  0.46723611
   0.50000000  0.50000713  0.46723611
   0.50000005  0.37528949  0.59476142
   0.24995742  0.49998422  0.60253619
   0.24994073  0.37507814  0.73667650
   0.49999999  0.49901363  0.72236284
   0.75000000  0.75000713  0.15618113
   0.75000000  0.75000713  0.25813187
   0.09799955  0.62500713  0.20715650
   0.90200045  0.62500713  0.20715650
   0.00000000  0.75000713  0.28622094
   0.00000000  0.75000713  0.38817167
   0.84799955  0.62500713  0.33719631
   0.15200045  0.62500713  0.33719631
   0.75000000  0.75000713  0.41626074
   0.75000000  0.75000713  0.51821148
   0.09799955  0.62500713  0.46723611
   0.90200045  0.62500713  0.46723611
   0.99999999  0.75003272  0.54710751
   0.00000001  0.74998859  0.64937350
   0.85022950  0.62503991  0.59809901
   0.14977049  0.62503991  0.59809900
   0.75035441  0.75013602  0.67698254
   0.74939985  0.74972963  0.77999354
   0.09408482  0.62499280  0.73468523
   0.90591518  0.62499280  0.73468523
   0.75000000  0.00000713  0.15618113
   0.75000000  0.00000713  0.25813187
   0.09799955  0.87500713  0.20715650
   0.90200045  0.87500713  0.20715650
   0.00000000  0.00000713  0.28622094
   0.00000000  0.00000713  0.38817167
   0.84799955  0.87500713  0.33719631
   0.15200045  0.87500713  0.33719631
   0.75000000  0.00000713  0.41626074
   0.75000000  0.00000713  0.51821148
   0.09799955  0.87500713  0.46723611
   0.90200045  0.87500713  0.46723611
   0.99999999  0.00001779  0.54711701
   1.00000000  0.99997793  0.64939290
   0.85022622  0.87503787  0.59814000
   0.14977377  0.87503788  0.59813999
   0.75014610  0.00003096  0.67706637
   0.75011465  0.99997269  0.78006538
   0.09408275  0.87493683  0.73465412
   0.90591726  0.87493682  0.73465412
   0.75000000  0.25000713  0.15618113
   0.75000000  0.25000713  0.25813187
   0.09799955  0.12500713  0.20715650
   0.90200045  0.12500713  0.20715650
   0.00000000  0.25000713  0.28622094
   0.00000000  0.25000713  0.38817167
   0.84799955  0.12500713  0.33719631
   0.15200045  0.12500713  0.33719631
   0.75000000  0.25000713  0.41626074
   0.75000000  0.25000713  0.51821148
   0.09799955  0.12500713  0.46723611
   0.90200045  0.12500713  0.46723611
   0.99999999  0.24998518  0.54711921
   1.00000000  0.25005621  0.64939537
   0.85023932  0.12497440  0.59816492
   0.14976067  0.12497440  0.59816491
   0.75037077  0.24988085  0.67703954
   0.74992555  0.25015359  0.78003059
   0.09404031  0.12504048  0.73462452
   0.90595969  0.12504049  0.73462452
   0.75000000  0.50000713  0.15618113
   0.75000000  0.50000713  0.25813187
   0.09799955  0.37500713  0.20715650
   0.90200045  0.37500713  0.20715650
   0.00000000  0.50000713  0.28622094
   0.00000000  0.50000713  0.38817167
   0.84799955  0.37500713  0.33719631
   0.15200045  0.37500713  0.33719631
   0.75000000  0.50000713  0.41626074
   0.75000000  0.50000713  0.51821148
   0.09799955  0.37500713  0.46723611
   0.90200045  0.37500713  0.46723611
   0.99999999  0.50000176  0.54710690
   0.00000000  0.50002743  0.64936362
   0.85023019  0.37499073  0.59812164
   0.14976979  0.37499072  0.59812162
   0.75052170  0.50004037  0.67698072
   0.74881527  0.50031277  0.77995682
   0.09408677  0.37513013  0.73470708
   0.90591323  0.37513012  0.73470708
   0.25000000  0.75000713  0.15618113
   0.25000000  0.75000713  0.25813187
   0.59799955  0.62500713  0.20715650
   0.40200045  0.62500713  0.20715650
   0.50000000  0.75000713  0.28622094
   0.50000000  0.75000713  0.38817167
   0.34799955  0.62500713  0.33719631
   0.65200045  0.62500713  0.33719631
   0.25000000  0.75000713  0.41626074
   0.25000000  0.75000713  0.51821148
   0.59799955  0.62500713  0.46723611
   0.40200045  0.62500713  0.46723611
   0.49999999  0.74972537  0.54712362
   0.50000001  0.75033752  0.64921756
   0.35011178  0.62500363  0.59826540
   0.64988821  0.62500362  0.59826539
   0.24964556  0.75013603  0.67698254
   0.25060016  0.74972963  0.77999354
   0.59419417  0.62559105  0.73394527
   0.40580581  0.62559105  0.73394524
   0.25000000  0.00000713  0.15618113
   0.25000000  0.00000713  0.25813187
   0.59799955  0.87500713  0.20715650
   0.40200045  0.87500713  0.20715650
   0.50000000  0.00000713  0.28622094
   0.50000000  0.00000713  0.38817167
   0.34799955  0.87500713  0.33719631
   0.65200045  0.87500713  0.33719631
   0.25000000  0.00000713  0.41626074
   0.25000000  0.00000713  0.51821148
   0.59799955  0.87500713  0.46723611
   0.40200045  0.87500713  0.46723611
   0.49999999  0.99997228  0.54700956
   0.50000000  0.00008600  0.64919203
   0.35011843  0.87501898  0.59813816
   0.64988156  0.87501899  0.59813815
   0.24985389  0.00003095  0.67706638
   0.24988535  0.99997269  0.78006538
   0.59420621  0.87534443  0.73424827
   0.40579379  0.87534443  0.73424827
   0.25000000  0.25000713  0.15618113
   0.25000000  0.25000713  0.25813187
   0.59799955  0.12500713  0.20715650
   0.40200045  0.12500713  0.20715650
   0.50000000  0.25000713  0.28622094
   0.50000000  0.25000713  0.38817167
   0.34799955  0.12500713  0.33719631
   0.65200045  0.12500713  0.33719631
   0.25000000  0.25000713  0.41626074
   0.25000000  0.25000713  0.51821148
   0.59799955  0.12500713  0.46723611
   0.40200045  0.12500713  0.46723611
   0.49999999  0.25026609  0.54709878
   0.50000000  0.24955983  0.64918456
   0.35010375  0.12499818  0.59812932
   0.64989622  0.12499819  0.59812930
   0.24962921  0.24988086  0.67703954
   0.25007445  0.25015360  0.78003060
   0.59416549  0.12487668  0.73450813
   0.40583451  0.12487668  0.73450814
   0.25000000  0.50000713  0.15618113
   0.25000000  0.50000713  0.25813187
   0.59799955  0.37500713  0.20715650
   0.40200045  0.37500713  0.20715650
   0.50000000  0.50000713  0.28622094
   0.50000000  0.50000713  0.38817167
   0.34799955  0.37500713  0.33719631
   0.65200045  0.37500713  0.33719631
   0.25000000  0.50000713  0.41626074
   0.25000000  0.50000713  0.51821148
   0.59799955  0.37500713  0.46723611
   0.40200045  0.37500713  0.46723611
   0.49999999  0.50001709  0.54721763
   0.50000001  0.49995334  0.64965440
   0.35011459  0.37500802  0.59828768
   0.64988540  0.37500801  0.59828766
   0.24947826  0.50004036  0.67698072
   0.25118473  0.50031278  0.77995682
   0.59438038  0.37426801  0.73366705
   0.40561962  0.37426802  0.73366705
 
 position of ions in cartesian coordinates  (Angst):
   9.75298532  7.39407072  5.17891255
   0.00000002  8.87286798  5.17891255
   0.00000002  7.39407072  8.42990765
   9.75298532  8.87286798  8.42990765
   9.75298532  7.39407072 11.68090275
   0.00000002  8.87286798 11.68090275
  13.00397963  7.39421980 14.86239685
   9.75326848  8.87328814 15.06299361
   9.75302517  7.39524736 18.40822793
   0.00000022  8.87343823 18.04092400
   9.75298532 10.35166524  5.17891255
   0.00000002  0.00008439  5.17891255
   0.00000002 10.35166524  8.42990765
   9.75298532  0.00008439  8.42990765
   9.75298532 10.35166524 11.68090275
   0.00000002  0.00008439 11.68090275
  13.00398030 10.35177162 14.86279750
   9.75277351  0.00023672 15.06604700
   9.75137546 10.35157022 18.41856260
  13.00398027 11.83029372 18.04137971
   9.75298532  1.47888166  5.17891255
   0.00000002  2.95767892  5.17891255
   0.00000002  1.47888166  8.42990765
   9.75298532  2.95767892  8.42990765
   9.75298532  1.47888166 11.68090275
   0.00000002  2.95767892 11.68090275
   0.00000089  1.47872177 14.86298284
   9.75325545  2.95728691 15.06594594
   9.75215489  1.47899360 18.41779256
   0.00000020  2.95730619 18.04133099
   9.75298532  4.43647619  5.17891255
   0.00000002  5.91527345  5.17891255
   0.00000002  4.43647619  8.42990765
   9.75298532  5.91527345  8.42990765
   9.75298532  4.43647619 11.68090275
   0.00000002  5.91527345 11.68090275
   0.00000110  4.43640704 14.86249437
   9.75353886  5.91500227 15.06340494
   9.75375615  4.43731608 18.41691269
  13.00398033  5.91582851 18.04058297
   3.25099512  7.39407072  5.17891255
   6.50199022  8.87286798  5.17891255
   6.50199022  7.39407072  8.42990765
   3.25099512  8.87286798  8.42990765
   3.25099512  7.39407072 11.68090275
   6.50199022  8.87286798 11.68090275
   6.50198966  7.39079505 14.87142845
   3.25071016  8.87328805 15.06299355
   3.25095524  7.39524746 18.40822765
   6.50199038  8.87947299 18.03743911
   3.25099512 10.35166524  5.17891255
   6.50199022  0.00008439  5.17891255
   6.50199022 10.35166524  8.42990765
   3.25099512  0.00008439  8.42990765
   3.25099512 10.35166524 11.68090275
   6.50199022  0.00008439 11.68090275
   6.50198970 10.34964924 14.85870869
   3.25120774  0.00023702 15.06604712
   3.25260507 10.35157032 18.41856266
   6.50199013  0.00033497 18.03617056
   3.25099512  1.47888166  5.17891255
   6.50199022  2.95767892  5.17891255
   6.50199022  1.47888166  8.42990765
   3.25099512  2.95767892  8.42990765
   3.25099512  1.47888166 11.68090275
   6.50199022  2.95767892 11.68090275
   6.50199171  1.48019732 14.85839730
   3.25072757  2.95728648 15.06594612
   3.25182547  1.47899361 18.41779291
   6.50199030  2.95435120 18.03589629
   3.25099512  4.43647619  5.17891255
   6.50199022  5.91527345  5.17891255
   6.50199022  4.43647619  8.42990765
   3.25099512  5.91527345  8.42990765
   3.25099512  4.43647619 11.68090275
   6.50199022  5.91527345 11.68090275
   6.50199084  4.43981653 14.86903561
   3.25044144  5.91500234 15.06340478
   3.25022437  4.43731620 18.41691262
   6.50199010  5.90351988 18.05907111
   9.75298532  8.87286798  3.90452835
   9.75298532  8.87286798  6.45329676
   1.27438422  7.39407072  5.17891255
  11.72959622  7.39407072  5.17891255
   0.00000002  8.87286798  7.15552345
   0.00000002  8.87286798  9.70429186
  11.02736952  7.39407072  8.42990765
   1.97661091  7.39407072  8.42990765
   9.75298532  8.87286798 10.40651855
   9.75298532  8.87286798 12.95528696
   1.27438422  7.39407072 11.68090275
  11.72959622  7.39407072 11.68090275
  13.00398029  8.87317070 13.67768784
   0.00000009  8.87264860 16.23433745
  11.05636776  7.39445851 14.95247531
   1.94761258  7.39445849 14.95247496
   9.75759401  8.87439276 16.92456349
   9.74518090  8.86958503 19.49983862
   1.22347720  7.39390109 18.36713072
  11.78050322  7.39390110 18.36713076
   9.75298532  0.00008439  3.90452835
   9.75298532  0.00008439  6.45329676
   1.27438422 10.35166524  5.17891255
  11.72959622 10.35166524  5.17891255
   0.00000002  0.00008439  7.15552345
   0.00000002  0.00008439  9.70429186
  11.02736952 10.35166524  8.42990765
   1.97661091 10.35166524  8.42990765
   9.75298532  0.00008439 10.40651855
   9.75298532  0.00008439 12.95528696
   1.27438422 10.35166524 11.68090275
  11.72959622 10.35166524 11.68090275
  13.00398026  0.00021041 13.67792523
  13.00398038 11.83011701 16.23482251
  11.05632511 10.35202888 14.95350009
   1.94765513 10.35202894 14.95349970
   9.75488521  0.00036630 16.92665927
   9.75447615 11.83005500 19.50163441
   1.22345018 10.35083353 18.36635288
  11.78053024 10.35083346 18.36635288
   9.75298532  2.95767892  3.90452835
   9.75298532  2.95767892  6.45329676
   1.27438422  1.47888166  5.17891255
  11.72959622  1.47888166  5.17891255
   0.00000002  2.95767892  7.15552345
   0.00000002  2.95767892  9.70429186
  11.02736952  1.47888166  8.42990765
   1.97661091  1.47888166  8.42990765
   9.75298532  2.95767892 10.40651855
   9.75298532  2.95767892 12.95528696
   1.27438422  1.47888166 11.68090275
  11.72959622  1.47888166 11.68090275
  13.00398025  2.95741918 13.67798018
  13.00398039  2.95825947 16.23488420
  11.05649547  1.47849436 14.95412295
   1.94748476  1.47849435 14.95412268
   9.75780678  2.95618496 16.92598852
   9.75201712  2.95941161 19.50076480
   1.22289841  1.47927621 18.36561300
  11.78108200  1.47927625 18.36561303
   9.75298532  5.91527345  3.90452835
   9.75298532  5.91527345  6.45329676
   1.27438422  4.43647619  5.17891255
  11.72959622  4.43647619  5.17891255
   0.00000002  5.91527345  7.15552345
   0.00000002  5.91527345  9.70429186
  11.02736952  4.43647619  8.42990765
   1.97661091  4.43647619  8.42990765
   9.75298532  5.91527345 10.40651855
   9.75298532  5.91527345 12.95528696
   1.27438422  4.43647619 11.68090275
  11.72959622  4.43647619 11.68090275
  13.00398028  5.91520989 13.67767241
   0.00000003  5.91551356 16.23409055
  11.05637671  4.43628214 14.95304100
   1.94760341  4.43628199 14.95304056
   9.75976948  5.91566667 16.92451802
   9.73757908  5.91888920 19.49892059
   1.22350248  4.43793123 18.36767706
  11.78047788  4.43793122 18.36767699
   3.25099512  8.87286798  3.90452835
   3.25099512  8.87286798  6.45329676
   7.77637442  7.39407072  5.17891255
   5.22760601  7.39407072  5.17891255
   6.50199022  8.87286798  7.15552345
   6.50199022  8.87286798  9.70429186
   4.52537932  7.39407072  8.42990765
   8.47860111  7.39407072  8.42990765
   3.25099512  8.87286798 10.40651855
   3.25099512  8.87286798 12.95528696
   7.77637442  7.39407072 11.68090275
   5.22760601  7.39407072 11.68090275
   6.50199007  8.86953457 13.67809040
   6.50199033  8.87677652 16.23043906
   4.55284671  7.39402921 14.95663504
   8.45113358  7.39402919 14.95663464
   3.24638600  8.87439287 16.92456344
   3.25879953  8.86958496 19.49983856
   7.72688933  7.40097871 18.34863180
   5.27709084  7.40097861 18.34863095
   3.25099512  0.00008439  3.90452835
   3.25099512  0.00008439  6.45329676
   7.77637442 10.35166524  5.17891255
   5.22760601 10.35166524  5.17891255
   6.50199022  0.00008439  7.15552345
   6.50199022  0.00008439  9.70429186
   4.52537932 10.35166524  8.42990765
   8.47860111 10.35166524  8.42990765
   3.25099512  0.00008439 10.40651855
   3.25099512  0.00008439 12.95528696
   7.77637442 10.35166524 11.68090275
   5.22760601 10.35166524 11.68090275
   6.50199007 11.83005015 13.67523889
   6.50199020  0.00101740 16.22980078
   4.55293323 10.35180540 14.95345411
   8.45104708 10.35180549 14.95345380
   3.24909503  0.00036620 16.92665941
   3.24950416 11.83005501 19.50163462
   7.72704585 10.35565558 18.35620669
   5.27693455 10.35565557 18.35620687
   3.25099512  2.95767892  3.90452835
   3.25099512  2.95767892  6.45329676
   7.77637442  1.47888166  5.17891255
   5.22760601  1.47888166  5.17891255
   6.50199022  2.95767892  7.15552345
   6.50199022  2.95767892  9.70429186
   4.52537932  1.47888166  8.42990765
   8.47860111  1.47888166  8.42990765
   3.25099512  2.95767892 10.40651855
   3.25099512  2.95767892 12.95528696
   7.77637442  1.47888166 11.68090275
   5.22760601  1.47888166 11.68090275
   6.50199003  2.96074242 13.67746961
   6.50199020  2.95238711 16.22961407
   4.55274234  1.47877569 14.95323301
   8.45123773  1.47877579 14.95323246
   3.24617342  2.95618500 16.92598862
   3.25196325  2.95941172 19.50076491
   7.72651634  1.47733833 18.36270322
   5.27746408  1.47733837 18.36270343
   3.25099512  5.91527345  3.90452835
   3.25099512  5.91527345  6.45329676
   7.77637442  4.43647619  5.17891255
   5.22760601  4.43647619  5.17891255
   6.50199022  5.91527345  7.15552345
   6.50199022  5.91527345  9.70429186
   4.52537932  4.43647619  8.42990765
   8.47860111  4.43647619  8.42990765
   3.25099512  5.91527345 10.40651855
   3.25099512  5.91527345 12.95528696
   7.77637442  4.43647619 11.68090275
   5.22760601  4.43647619 11.68090275
   6.50199006  5.91539119 13.68044065
   6.50199034  5.91463706 16.24135989
   4.55288323  4.43648665 14.95719195
   8.45109703  4.43648660 14.95719152
   3.24421046  5.91566651 16.92451791
   3.26640134  5.91888934 19.49892048
   7.72931082  4.42773210 18.34167632
   5.27466959  4.42773217 18.34167626
 


--------------------------------------------------------------------------------------------------------

--------------------------------------- Iteration      FINAL  ---------------------------------------


--------------------OUTCAR has been truncated-------------------------


--------------------OUTCAR has been truncated-------------------------


--------------------OUTCAR has been truncated-------------------------


--------------------OUTCAR has been truncated-------------------------


--------------------OUTCAR has been truncated-------------------------


--------------------OUTCAR has been truncated-------------------------


--------------------OUTCAR has been truncated-------------------------


--------------------OUTCAR has been truncated-------------------------


--------------------OUTCAR has been truncated-------------------------


--------------------OUTCAR has been truncated-------------------------


    MIXING:  cpu time      0.0807: real time      0.0810
    OFIELD:  cpu time      0.0000: real time      0.0000

 ---------------------------------------------------------------------------------------------

         DFTD3 V3.0 Rev 1        
 IVDW         = 11
 DF pbe       
 parameters
 VDW_S6       =    1.0000
 VDW_S8       =    0.7220
 VDW_SR       =    1.2170
 rs18     =    1.0000
 alpha6   =   14.0000
 alpha8   =   16.0000
 k1-k3    =   16.0000    1.3333   -4.0000
 VDW_RADIUS   =   50.2022 A
 VDW_CNRADIUS =   21.1671 A
 Edisp (eV)  -36.22788

 E6    (eV) :   -15.5816
 E8    (eV) :   -20.6462
 % E8        : 56.99
    FORVDW:  cpu time      2.8362: real time      2.8429

  FORCE on cell =-STRESS in cart. coord.  units (eV):
  Direction    XX          YY          ZZ          XY          YZ          ZX
  --------------------------------------------------------------------------------------
  Alpha Z  4551.47410  4551.47410  4551.47410
  Ewald  508623.66753531798.57011************    -0.00001    -2.39657     0.00017
  Hartree565360.11180579090.69312************    -0.00000    -1.21683     0.00009
  E(xc)   -9994.33283 -9964.10916-10004.39064     0.00000    -0.00756     0.00000
  Local  ************************************     0.00001     3.60669    -0.00026
  n-local -4717.64210 -4926.38188 -4768.63171    -0.00000     0.08903     0.00000
  augment  4835.79567  4896.22791  4840.91681     0.00000    -0.03354     0.00000
  Kinetic 43031.34563 42840.45744 43090.65187     0.00000    -0.05817    -0.00001
  Fock        0.00000     0.00000     0.00000     0.00000     0.00000     0.00000
  vdW       -27.79200   -36.09157   -24.38082    -0.00000    -0.00004    -0.00000
  -------------------------------------------------------------------------------------
  Total      55.46550    -6.82047     7.36429    -0.00000    -0.01698    -0.00000
  in kB      23.10567    -2.84125     3.06780    -0.00000    -0.00708    -0.00000
  external pressure =        7.78 kB  Pullay stress =        0.00 kB


 VOLUME and BASIS-vectors are now :
 -----------------------------------------------------------------------------
  energy-cutoff  :     1000.00
  volume of cell :     3846.05
      direct lattice vectors                 reciprocal lattice vectors
    13.003980404  0.000000000  0.000000000     0.076899531  0.000000000  0.000000000
     0.000000000 11.830378115  0.000000000     0.000000000  0.084528152  0.000000000
     0.000000000  0.000000000 25.000000000     0.000000000  0.000000000  0.040000000

  length of vectors
    13.003980404 11.830378115 25.000000000     0.076899531  0.084528152  0.040000000


 FORCES acting on ions
    electron-ion (+dipol)            ewald-force                    non-local-force                 convergence-correction
 -----------------------------------------------------------------------------------------------
   0.162E-01 0.102E-01 0.369E+04   -.162E-01 -.101E-01 -.370E+04   -.125E-04 -.112E-02 0.116E+01   0.861E-05 -.171E-04 0.736E-04
   0.428E-06 0.108E-01 0.391E+04   -.104E-07 -.107E-01 -.390E+04   -.192E-06 -.111E-02 -.568E+01   -.112E-05 -.409E-05 0.291E-03
   0.224E-05 0.231E-01 0.188E+04   -.342E-06 -.230E-01 -.188E+04   0.392E-06 0.407E-02 -.185E+00   -.199E-05 0.560E-05 -.237E-03
   0.520E-01 0.480E-01 0.187E+04   -.523E-01 -.473E-01 -.187E+04   0.121E-03 0.366E-02 0.337E+00   0.443E-05 -.313E-05 -.593E-04
   0.496E+00 0.200E+00 -.328E+02   -.499E+00 -.200E+00 0.338E+02   0.875E-03 -.945E-03 -.287E+00   0.878E-06 -.391E-05 -.269E-03
   -.680E-05 -.219E-01 -.143E+02   0.724E-05 0.257E-01 0.130E+02   0.107E-06 -.220E-02 0.583E+00   -.822E-06 0.263E-06 -.329E-03
   -.120E-03 0.912E-01 -.186E+04   0.114E-03 -.892E-01 0.186E+04   0.154E-04 -.271E-02 0.774E+00   -.645E-06 -.108E-05 -.139E-03
   0.283E+00 0.151E+00 -.191E+04   -.268E+00 -.143E+00 0.191E+04   -.690E-02 -.753E-02 -.112E+01   -.328E-06 -.454E-06 -.937E-04
   -.176E+01 0.113E+01 -.365E+04   0.170E+01 -.111E+01 0.365E+04   0.511E-01 -.103E-01 -.164E+01   -.471E-05 0.368E-04 0.752E-04
   0.965E-04 0.785E+00 -.373E+04   -.954E-04 -.779E+00 0.373E+04   -.270E-05 -.189E-01 0.284E+01   -.107E-05 -.421E-05 0.830E-04
   0.114E-01 0.103E-01 0.369E+04   -.115E-01 -.100E-01 -.370E+04   0.371E-04 -.119E-02 0.116E+01   0.536E-05 0.221E-04 0.804E-04
   0.262E-05 -.557E-03 0.391E+04   0.338E-07 0.537E-03 -.390E+04   -.826E-07 -.109E-02 -.568E+01   -.303E-05 0.424E-05 0.283E-03
   0.108E-05 -.481E-02 0.188E+04   0.295E-06 0.510E-02 -.188E+04   0.157E-06 0.404E-02 -.186E+00   -.139E-05 -.382E-05 -.235E-03
   0.837E-02 -.144E-01 0.187E+04   -.910E-02 0.148E-01 -.187E+04   0.244E-03 0.375E-02 0.336E+00   0.356E-05 0.327E-05 -.689E-04
   0.185E-01 0.232E-01 -.327E+02   -.200E-01 -.572E-02 0.337E+02   0.469E-03 -.463E-02 -.291E+00   0.131E-05 0.173E-05 -.265E-03
   -.729E-05 -.103E+00 -.146E+02   0.715E-05 0.105E+00 0.132E+02   0.104E-06 -.171E-02 0.584E+00   -.361E-06 0.485E-06 -.329E-03
   0.498E-04 -.132E+00 -.186E+04   -.495E-04 0.130E+00 0.186E+04   0.139E-05 -.212E-02 0.776E+00   -.802E-06 0.255E-06 -.139E-03
   -.295E+00 0.549E-01 -.191E+04   0.301E+00 -.584E-01 0.191E+04   0.415E-02 0.437E-02 -.113E+01   -.341E-06 0.240E-06 -.107E-03
   -.140E+01 0.743E+00 -.366E+04   0.142E+01 -.772E+00 0.366E+04   0.896E-02 -.598E-02 -.166E+01   -.385E-05 -.258E-04 0.888E-04
   -.853E-05 0.424E+00 -.373E+04   0.368E-05 -.436E+00 0.373E+04   0.956E-06 0.742E-03 0.285E+01   0.529E-05 0.498E-05 0.808E-04
   0.107E-01 -.102E-01 0.369E+04   -.108E-01 0.101E-01 -.370E+04   0.390E-04 -.108E-02 0.116E+01   0.700E-05 -.194E-04 0.827E-04
   0.103E-05 -.108E-01 0.391E+04   0.490E-07 0.107E-01 -.390E+04   -.535E-06 -.107E-02 -.568E+01   -.800E-06 -.396E-05 0.290E-03
   0.251E-06 -.231E-01 0.188E+04   0.863E-06 0.230E-01 -.188E+04   -.171E-06 0.411E-02 -.186E+00   -.999E-06 0.374E-05 -.237E-03
   0.388E-01 -.475E-01 0.187E+04   -.393E-01 0.467E-01 -.187E+04   0.144E-03 0.395E-02 0.336E+00   0.451E-05 -.384E-05 -.600E-04
   -.557E-01 -.193E+00 -.329E+02   0.542E-01 0.191E+00 0.339E+02   0.519E-03 -.541E-03 -.294E+00   0.111E-05 -.105E-05 -.264E-03
   -.166E-06 0.239E-01 -.146E+02   -.106E-06 -.278E-01 0.133E+02   0.127E-06 0.290E-03 0.585E+00   -.435E-06 -.591E-07 -.329E-03
   0.245E-03 -.179E+00 -.186E+04   -.235E-03 0.176E+00 0.186E+04   -.186E-04 0.378E-02 0.781E+00   -.525E-06 0.167E-05 -.138E-03
   -.673E-01 -.277E+00 -.191E+04   0.843E-01 0.269E+00 0.191E+04   -.524E-02 -.152E-02 -.113E+01   -.534E-07 0.108E-05 -.911E-04
   -.498E+00 -.124E+00 -.366E+04   0.525E+00 0.113E+00 0.366E+04   0.491E-02 0.274E-03 -.165E+01   -.511E-05 0.261E-04 0.861E-04
   0.612E-04 -.146E+01 -.373E+04   -.634E-04 0.145E+01 0.373E+04   -.313E-05 0.205E-01 0.284E+01   0.219E-05 0.218E-06 0.814E-04
   0.155E-01 -.104E-01 0.369E+04   -.155E-01 0.999E-02 -.370E+04   -.114E-04 -.102E-02 0.116E+01   0.820E-05 0.146E-04 0.747E-04
   0.351E-05 0.545E-03 0.391E+04   0.383E-08 -.526E-03 -.390E+04   -.221E-06 -.110E-02 -.568E+01   -.391E-05 0.395E-05 0.284E-03
   -.819E-07 0.480E-02 0.188E+04   0.119E-06 -.505E-02 -.188E+04   -.709E-06 0.413E-02 -.186E+00   0.940E-06 -.539E-05 -.237E-03
   0.821E-01 0.139E-01 0.187E+04   -.822E-01 -.143E-01 -.187E+04   -.277E-05 0.386E-02 0.337E+00   0.412E-05 0.363E-05 -.557E-04
   0.406E+00 -.300E-01 -.330E+02   -.409E+00 0.144E-01 0.340E+02   0.608E-03 0.244E-02 -.290E+00   0.133E-05 0.325E-05 -.267E-03
   0.138E-05 0.106E+00 -.143E+02   -.147E-05 -.109E+00 0.130E+02   0.766E-07 -.305E-03 0.583E+00   -.429E-06 -.671E-06 -.328E-03
   0.364E-03 0.163E+00 -.186E+04   -.352E-03 -.161E+00 0.186E+04   -.238E-04 0.568E-03 0.776E+00   -.436E-08 -.705E-06 -.138E-03
   0.592E+00 0.399E-01 -.191E+04   -.570E+00 -.374E-01 0.191E+04   -.135E-01 0.177E-02 -.112E+01   0.153E-06 -.847E-06 -.102E-03
   -.211E+01 -.146E+01 -.366E+04   0.223E+01 0.149E+01 0.366E+04   -.211E-01 0.635E-02 -.165E+01   -.289E-05 -.371E-04 0.725E-04
   0.196E-04 0.744E-01 -.373E+04   -.220E-04 -.618E-01 0.373E+04   0.939E-06 -.624E-02 0.283E+01   0.199E-05 -.951E-06 0.834E-04
   -.162E-01 0.102E-01 0.369E+04   0.162E-01 -.101E-01 -.370E+04   0.115E-04 -.113E-02 0.116E+01   -.313E-05 -.482E-06 0.104E-03
   0.122E-05 0.183E-01 0.391E+04   0.139E-08 -.180E-01 -.390E+04   0.767E-08 -.115E-02 -.568E+01   -.152E-05 -.122E-05 0.292E-03
   -.528E-06 0.735E-01 0.188E+04   0.323E-06 -.703E-01 -.188E+04   -.374E-07 0.316E-02 -.186E+00   -.365E-06 0.384E-05 -.230E-03
   -.520E-01 0.480E-01 0.187E+04   0.523E-01 -.473E-01 -.187E+04   -.122E-03 0.366E-02 0.337E+00   -.157E-05 -.283E-05 -.879E-04
   -.496E+00 0.200E+00 -.328E+02   0.499E+00 -.200E+00 0.338E+02   -.876E-03 -.945E-03 -.287E+00   -.400E-06 -.589E-05 -.265E-03
   -.176E-04 0.703E+00 -.150E+02   0.172E-04 -.714E+00 0.137E+02   0.730E-08 0.696E-02 0.574E+00   0.367E-06 -.907E-07 -.330E-03
   -.826E-04 0.183E+00 -.186E+04   0.779E-04 -.138E+00 0.186E+04   0.976E-05 0.480E-02 0.739E+00   0.862E-06 0.116E-05 -.136E-03
   -.283E+00 0.151E+00 -.191E+04   0.268E+00 -.143E+00 0.191E+04   0.693E-02 -.753E-02 -.112E+01   0.405E-06 0.661E-07 -.933E-04
   0.176E+01 0.113E+01 -.365E+04   -.170E+01 -.111E+01 0.365E+04   -.511E-01 -.103E-01 -.164E+01   0.351E-05 0.590E-05 0.845E-04
   0.876E-04 0.348E+01 -.374E+04   -.890E-04 -.372E+01 0.373E+04   -.403E-05 0.565E-01 0.291E+01   0.271E-05 -.697E-05 0.817E-04
   -.114E-01 0.104E-01 0.369E+04   0.115E-01 -.100E-01 -.370E+04   -.376E-04 -.118E-02 0.116E+01   -.543E-05 -.746E-05 0.104E-03
   -.267E-05 0.505E-03 0.391E+04   -.557E-07 -.531E-03 -.390E+04   -.970E-07 -.109E-02 -.568E+01   0.297E-05 0.458E-05 0.283E-03
   0.593E-06 0.662E-01 0.188E+04   -.454E-06 -.637E-01 -.188E+04   0.785E-07 0.326E-02 -.186E+00   -.682E-06 -.272E-05 -.232E-03
   -.837E-02 -.144E-01 0.187E+04   0.910E-02 0.148E-01 -.187E+04   -.244E-03 0.375E-02 0.336E+00   -.218E-05 0.226E-05 -.674E-04
   -.185E-01 0.232E-01 -.327E+02   0.200E-01 -.570E-02 0.337E+02   -.469E-03 -.463E-02 -.291E+00   -.841E-06 0.426E-05 -.262E-03
   0.857E-05 -.221E-01 -.134E+02   -.951E-05 0.237E-01 0.121E+02   0.207E-06 -.799E-03 0.567E+00   0.236E-06 0.529E-06 -.329E-03
   -.684E-04 -.113E+01 -.185E+04   0.639E-04 0.111E+01 0.185E+04   0.994E-05 0.137E-01 0.724E+00   0.443E-06 -.783E-07 -.138E-03
   0.296E+00 0.552E-01 -.191E+04   -.301E+00 -.587E-01 0.191E+04   -.416E-02 0.436E-02 -.113E+01   0.108E-05 0.108E-05 -.931E-04
[...]
      9.75215      1.47899     18.41779         0.032637     -0.010740      0.162725
      0.00000      2.95731     18.04133        -0.000003      0.008894      0.090813
      9.75299      4.43648      5.17891         0.000025     -0.001347     -3.541914
      0.00000      5.91527      5.17891        -0.000000     -0.001056      2.744258
      0.00000      4.43648      8.42991         0.000000      0.003899      0.520671
      9.75299      5.91527      8.42991        -0.000070      0.003512     -0.703905
      9.75299      4.43648     11.68090        -0.001813     -0.013209      0.700922
      0.00000      5.91527     11.68090        -0.000000     -0.002758     -0.748480
      0.00000      4.43641     14.86249        -0.000012      0.002576      0.057351
      9.75354      5.91500     15.06340         0.008334      0.004197     -0.026699
      9.75376      4.43732     18.41691         0.097980      0.036689      0.172550
     13.00398      5.91583     18.04058         0.000001      0.006297      0.107299
      3.25100      7.39407      5.17891        -0.000024     -0.000964     -3.542098
      6.50199      8.87287      5.17891        -0.000000     -0.000862      2.744639
      6.50199      7.39407      8.42991        -0.000000      0.006443      0.520627
      3.25100      8.87287      8.42991         0.000253      0.004448     -0.703928
      3.25100      7.39407     11.68090         0.002059     -0.000767      0.692948
      6.50199      8.87287     11.68090         0.000000     -0.003803     -0.731957
      6.50199      7.39080     14.87143         0.000006      0.050388      0.005949
      3.25071      8.87329     15.06299        -0.008151      0.000838     -0.021777
      3.25096      7.39525     18.40823         0.011565      0.005163      0.247537
      6.50199      8.87947     18.03744        -0.000003     -0.182814      0.006848
      3.25100     10.35167      5.17891         0.000048     -0.000811     -3.541963
      6.50199      0.00008      5.17891         0.000000     -0.001093      2.744913
      6.50199     10.35167      8.42991        -0.000000      0.005864      0.522624
      3.25100      0.00008      8.42991         0.000487      0.004142     -0.702099
      3.25100     10.35167     11.68090         0.000972      0.012913      0.701673
      6.50199      0.00008     11.68090        -0.000000      0.000797     -0.759636
      6.50199     10.34965     14.85871         0.000006     -0.011466      0.020442
      3.25121      0.00024     15.06605        -0.009600      0.000907     -0.035303
      3.25261     10.35157     18.41856        -0.037898     -0.035277      0.167402
      6.50199      0.00033     18.03617         0.000001      0.014500      0.008394
      3.25100      1.47888      5.17891         0.000049     -0.001210     -3.541767
      6.50199      2.95768      5.17891        -0.000001     -0.001283      2.744819
      6.50199      1.47888      8.42991        -0.000000      0.002871      0.522921
      3.25100      2.95768      8.42991         0.000298      0.003206     -0.702159
      3.25100      1.47888     11.68090         0.000894     -0.002612      0.709846
      6.50199      2.95768     11.68090        -0.000001      0.000606     -0.738427
      6.50199      1.48020     14.85840        -0.000017     -0.007492      0.009568
      3.25073      2.95729     15.06595        -0.011881     -0.009482     -0.040178
      3.25183      1.47899     18.41779        -0.032636     -0.010741      0.162721
      6.50199      2.95435     18.03590        -0.000001     -0.110547     -0.026433
      3.25100      4.43648      5.17891        -0.000025     -0.001348     -3.541912
      6.50199      5.91527      5.17891        -0.000000     -0.001059      2.744553
      6.50199      4.43648      8.42991        -0.000001      0.001248      0.520814
      3.25100      5.91527      8.42991         0.000070      0.003512     -0.703908
      3.25100      4.43648     11.68090         0.001813     -0.013210      0.700921
      6.50199      5.91527     11.68090        -0.000000     -0.001418     -0.737001
      6.50199      4.43982     14.86904        -0.000006     -0.030371     -0.011981
      3.25044      5.91500     15.06340        -0.008333      0.004197     -0.026695
      3.25022      4.43732     18.41691        -0.097982      0.036690      0.172545
      6.50199      5.90352     18.05907         0.000002      0.309702     -0.315390
      9.75299      8.87287      3.90453        -0.000033     -0.000241      1.851704
      9.75299      8.87287      6.45330         0.000026     -0.000250      1.701588
      1.27438      7.39407      5.17891        -1.881932     -0.000116     -0.815785
     11.72960      7.39407      5.17891         1.881935     -0.000116     -0.815784
      0.00000      8.87287      7.15552         0.000000     -0.000171     -1.336696
      0.00000      8.87287      9.70429        -0.000000      0.001745     -0.130146
     11.02737      7.39407      8.42991         0.416764     -0.000144      0.055423
      1.97661      7.39407      8.42991        -0.416763     -0.000144      0.055423
      9.75299      8.87287     10.40652         0.000208     -0.002906     -0.096478
      9.75299      8.87287     12.95529        -0.000579     -0.003030      0.024286
      1.27438      7.39407     11.68090        -0.505101     -0.000146      0.095016
     11.72960      7.39407     11.68090         0.505101     -0.000145      0.095016
     13.00398      8.87317     13.67769         0.000000      0.000217     -0.001610
      0.00000      8.87265     16.23434        -0.000000     -0.001665     -0.027156
     11.05637      7.39446     14.95248        -0.034560     -0.002315     -0.006356
      1.94761      7.39446     14.95247         0.034561     -0.002315     -0.006356
      9.75759      8.87439     16.92456        -0.004903      0.005314      0.026793
      9.74518      8.86959     19.49984         0.016163      0.047898     -0.081073
      1.22348      7.39390     18.36713        -0.070993     -0.003641      0.062156
     11.78050      7.39390     18.36713         0.070994     -0.003641      0.062158
      9.75299      0.00008      3.90453        -0.000027     -0.000149      1.851629
      9.75299      0.00008      6.45330         0.000052     -0.000170      1.701061
      1.27438     10.35167      5.17891        -1.881968     -0.000122     -0.815786
     11.72960     10.35167      5.17891         1.881969     -0.000121     -0.815785
      0.00000      0.00008      7.15552         0.000000     -0.000138     -1.336691
      0.00000      0.00008      9.70429         0.000000      0.001795     -0.130073
     11.02737     10.35167      8.42991         0.416859     -0.000485      0.055357
      1.97661     10.35167      8.42991        -0.416859     -0.000485      0.055357
      9.75299      0.00008     10.40652         0.000081     -0.002439     -0.099825
      9.75299      0.00008     12.95529         0.001114     -0.001591      0.016081
      1.27438     10.35167     11.68090        -0.507133     -0.001153      0.094362
     11.72960     10.35167     11.68090         0.507133     -0.001153      0.094362
     13.00398      0.00021     13.67793         0.000000      0.001075     -0.000842
     13.00398     11.83012     16.23482         0.000000     -0.000285     -0.023243
     11.05633     10.35203     14.95350        -0.033856      0.001567     -0.004483
      1.94766     10.35203     14.95350         0.033856      0.001567     -0.004482
      9.75489      0.00037     16.92666        -0.006956      0.007181      0.038365
      9.75448     11.83006     19.50163        -0.003674      0.015015     -0.046195
      1.22345     10.35083     18.36635        -0.065160      0.003229      0.065900
     11.78053     10.35083     18.36635         0.065161      0.003229      0.065902
      9.75299      2.95768      3.90453        -0.000042     -0.000023      1.851532
      9.75299      2.95768      6.45330         0.000031      0.000026      1.701100
      1.27438      1.47888      5.17891        -1.881982     -0.000066     -0.815808
     11.72960      1.47888      5.17891         1.881983     -0.000066     -0.815807
      0.00000      2.95768      7.15552         0.000001      0.000010     -1.336675
      0.00000      2.95768      9.70429         0.000000      0.002166     -0.129844
     11.02737      1.47888      8.42991         0.416951     -0.000017      0.055276
      1.97661      1.47888      8.42991        -0.416950     -0.000017      0.055276
      9.75299      2.95768     10.40652         0.000180      0.002685     -0.099789
      9.75299      2.95768     12.95529        -0.000097      0.003410      0.020626
      1.27438      1.47888     11.68090        -0.509215      0.000218      0.094044
     11.72960      1.47888     11.68090         0.509215      0.000218      0.094044
     13.00398      2.95742     13.67798         0.000000     -0.000471     -0.001145
     13.00398      2.95826     16.23488         0.000001      0.000922     -0.022017
     11.05650      1.47849     14.95412        -0.034857      0.002589     -0.003906
      1.94748      1.47849     14.95412         0.034858      0.002589     -0.003905
      9.75781      2.95618     16.92599        -0.007894      0.000006      0.041144
      9.75202      2.95941     19.50076        -0.014250     -0.002338     -0.047169
      1.22290      1.47928     18.36561        -0.058352      0.000991      0.069294
     11.78108      1.47928     18.36561         0.058352      0.000992      0.069296
      9.75299      5.91527      3.90453        -0.000048     -0.000116      1.851601
      9.75299      5.91527      6.45330         0.000014     -0.000050      1.701599
      1.27438      4.43648      5.17891        -1.881944     -0.000068     -0.815807
     11.72960      4.43648      5.17891         1.881945     -0.000068     -0.815806
      0.00000      5.91527      7.15552         0.000000     -0.000028     -1.336676
      0.00000      5.91527      9.70429         0.000000      0.002118     -0.130044
     11.02737      4.43648      8.42991         0.416851      0.000288      0.055348
      1.97661      4.43648      8.42991        -0.416850      0.000288      0.055348
      9.75299      5.91527     10.40652         0.000474      0.002225     -0.096553
      9.75299      5.91527     12.95529        -0.002098      0.001017      0.027460
      1.27438      4.43648     11.68090        -0.507222      0.000863      0.094714
     11.72960      4.43648     11.68090         0.507222      0.000863      0.094714
     13.00398      5.91521     13.67767         0.000000     -0.001102     -0.001548
      0.00000      5.91551     16.23409         0.000000      0.000614     -0.024895
     11.05638      4.43628     14.95304        -0.035534     -0.002916     -0.005580
      1.94760      4.43628     14.95304         0.035536     -0.002915     -0.005580
      9.75977      5.91567     16.92452        -0.006083     -0.010486      0.027651
      9.73758      5.91889     19.49892         0.018981     -0.063811     -0.084669
      1.22350      4.43793     18.36768        -0.060498     -0.004233      0.065356
     11.78048      4.43793     18.36768         0.060500     -0.004235      0.065358
      3.25100      8.87287      3.90453         0.000034     -0.000243      1.851707
      3.25100      8.87287      6.45330        -0.000026     -0.000250      1.701594
      7.77637      7.39407      5.17891        -1.881922     -0.000192     -0.815863
      5.22761      7.39407      5.17891         1.881920     -0.000192     -0.815862
      6.50199      8.87287      7.15552        -0.000000     -0.000728     -1.337255
      6.50199      8.87287      9.70429         0.000000      0.000507     -0.132308
      4.52538      7.39407      8.42991         0.416653     -0.000259      0.055414
      8.47860      7.39407      8.42991        -0.416653     -0.000259      0.055416
      3.25100      8.87287     10.40652        -0.000208     -0.002906     -0.096479
      3.25100      8.87287     12.95529         0.000579     -0.003030      0.024286
      7.77637      7.39407     11.68090        -0.504373     -0.005948      0.093897
      5.22761      7.39407     11.68090         0.504372     -0.005948      0.093897
      6.50199      8.86953     13.67809         0.000000     -0.007706      0.008451
      6.50199      8.87678     16.23044         0.000000      0.003411     -0.010354
      4.55285      7.39403     14.95664        -0.013894     -0.004062     -0.009286
      8.45113      7.39403     14.95663         0.013894     -0.004062     -0.009286
      3.24639      8.87439     16.92456         0.004904      0.005314      0.026793
      3.25880      8.86958     19.49984        -0.016163      0.047897     -0.081077
      7.72689      7.40098     18.34863        -0.129754     -0.094722      0.128738
      5.27709      7.40098     18.34863         0.129755     -0.094721      0.128742
      3.25100      0.00008      3.90453         0.000028     -0.000149      1.851635
      3.25100      0.00008      6.45330        -0.000052     -0.000171      1.701063
      7.77637     10.35167      5.17891        -1.881910     -0.000197     -0.815866
      5.22761     10.35167      5.17891         1.881909     -0.000197     -0.815864
      6.50199      0.00008      7.15552        -0.000000     -0.000194     -1.337837
      6.50199      0.00008      9.70429         0.000000      0.001625     -0.137100
      4.52538     10.35167      8.42991         0.416164     -0.000551      0.055243
      8.47860     10.35167      8.42991        -0.416164     -0.000551      0.055245
      3.25100      0.00008     10.40652        -0.000081     -0.002439     -0.099825
      3.25100      0.00008     12.95529        -0.001114     -0.001591      0.016081
      7.77637     10.35167     11.68090        -0.504641     -0.004788      0.094493
      5.22761     10.35167     11.68090         0.504641     -0.004788      0.094494
      6.50199     11.83005     13.67524         0.000000      0.004864      0.009157
      6.50199      0.00102     16.22980        -0.000000      0.000885      0.001483
      4.55293     10.35181     14.95345        -0.022034      0.002147     -0.005397
      8.45105     10.35181     14.95345         0.022034      0.002147     -0.005398
      3.24910      0.00037     16.92666         0.006957      0.007181      0.038364
      3.24950     11.83006     19.50163         0.003674      0.015014     -0.046196
      7.72705     10.35566     18.35621        -0.078615      0.006784      0.098578
      5.27693     10.35566     18.35621         0.078615      0.006784      0.098579
      3.25100      2.95768      3.90453         0.000043     -0.000021      1.851538
      3.25100      2.95768      6.45330        -0.000030      0.000027      1.701108
      7.77637      1.47888      5.17891        -1.881920      0.000001     -0.815897
      5.22761      1.47888      5.17891         1.881920      0.000001     -0.815896
      6.50199      2.95768      7.15552        -0.000000      0.000557     -1.337354
      6.50199      2.95768      9.70429         0.000000      0.003408     -0.133488
      4.52538      1.47888      8.42991         0.416197      0.000033      0.055159
      8.47860      1.47888      8.42991        -0.416196      0.000033      0.055161
      3.25100      2.95768     10.40652        -0.000180      0.002686     -0.099790
      3.25100      2.95768     12.95529         0.000098      0.003411      0.020626
      7.77637      1.47888     11.68090        -0.506592      0.002604      0.094194
      5.22761      1.47888     11.68090         0.506593      0.002605      0.094194
      6.50199      2.96074     13.67747         0.000000      0.005955      0.014071
      6.50199      2.95239     16.22961        -0.000000      0.007877      0.026394
      4.55274      1.47878     14.95323        -0.018981      0.002819     -0.004233
      8.45124      1.47878     14.95323         0.018982      0.002819     -0.004234
      3.24617      2.95619     16.92599         0.007895      0.000006      0.041144
      3.25196      2.95941     19.50076         0.014250     -0.002337     -0.047181
      7.72652      1.47734     18.36270        -0.080339      0.018175      0.068372
      5.27746      1.47734     18.36270         0.080340      0.018174      0.068373
      3.25100      5.91527      3.90453         0.000049     -0.000116      1.851607
      3.25100      5.91527      6.45330        -0.000013     -0.000049      1.701604
      7.77637      4.43648      5.17891        -1.881929      0.000017     -0.815894
      5.22761      4.43648      5.17891         1.881930      0.000017     -0.815892
      6.50199      5.91527      7.15552        -0.000000      0.000029     -1.336601
      6.50199      5.91527      9.70429        -0.000000      0.002152     -0.124026
      4.52538      4.43648      8.42991         0.416678      0.000418      0.055321
      8.47860      4.43648      8.42991        -0.416678      0.000418      0.055323
      3.25100      5.91527     10.40652        -0.000474      0.002226     -0.096553
      3.25100      5.91527     12.95529         0.002098      0.001017      0.027461
      7.77637      4.43648     11.68090        -0.505960      0.007266      0.093686
      5.22761      4.43648     11.68090         0.505960      0.007266      0.093686
      6.50199      5.91539     13.68044         0.000000     -0.003556      0.014269
      6.50199      5.91464     16.24136        -0.000000     -0.018448      0.099082
      4.55288      4.43649     14.95719        -0.012738     -0.000829     -0.008971
      8.45110      4.43649     14.95719         0.012739     -0.000829     -0.008971
      3.24421      5.91567     16.92452         0.006084     -0.010486      0.027651
      3.26640      5.91889     19.49892        -0.018980     -0.063811     -0.084662
      7.72931      4.42773     18.34168        -0.116359      0.057157      0.181489
      5.27467      4.42773     18.34168         0.116358      0.057158      0.181490
 -----------------------------------------------------------------------------------
    total drift:                               -0.000038     -0.004254     -0.600427


--------------------------------------------------------------------------------------------------------



  FREE ENERGIE OF THE ION-ELECTRON SYSTEM (eV)
  ---------------------------------------------------
  free  energy   TOTEN  =     -2166.18269585 eV

  energy  without entropy=    -2166.18269585  energy(sigma->0) =    -2166.18269585
 


--------------------------------------------------------------------------------------------------------


    POTLOK:  cpu time      3.4887: real time      3.4978


--------------------------------------------------------------------------------------------------------


     LOOP+:  cpu time    136.3774: real time    136.7510
    4ORBIT:  cpu time      0.0000: real time      0.0000

 total amount of memory used by VASP MPI-rank0  5711525. kBytes
=======================================================================

   base      :      30000. kBytes
   nonlr-proj:      78752. kBytes
   fftplans  :     145087. kBytes
   grid      :     309878. kBytes
   one-center:       3732. kBytes
   wavefun   :    5144076. kBytes
 
  
  
 General timing and accounting informations for this job:
 ========================================================
  
                  Total CPU time used (sec):      191.569
                            User time (sec):      184.495
                          System time (sec):        7.074
                         Elapsed time (sec):      192.761
  
                   Maximum memory used (kb):     7232640.
                   Average memory used (kb):          N/A
  
                          Minor page faults:       270498
                          Major page faults:            0
                 Voluntary context switches:        14578
