 vasp.6.3.0 20Jan22 (build Mar 11 2022 13:48:16) complex                        
  
 executed on             LinuxIFC date 2023.12.30  09:05:42
 running on  608 total cores
 distrk:  each k-point on  608 cores,    1 groups
 distr:  one band on NCORE=  19 cores,   32 groups


--------------------------------------------------------------------------------------------------------


 INCAR:
   SYSTEM = TiO2
   ISMEAR = 0
   SIGMA = 0.05
   EDIFF = 1E-7
   ALGO = ALL
   ISTART = 0
   IBRION = 2
   NSW = 1000
   ISYM = 0
   ISIF = 2
   EDIFFG = -0.02
   DIPOL = 0.5 0.5 0.5
   IDIPOL = 3
   LDIPOL = .TRUE.
   LHFCALC = .TRUE.
   HFSCREEN = 0.2
   GGA = PE
   IVDW = 13
   VDW_S8 = 1.19528249
   VDW_A1 = 0.38663183
   VDW_A2 = 5.19133469
   ENCUT = 520
   PREC = Normal
   PRECFOCK = Fast
   LASPH = .TRUE.
   LREAL = .FALSE.
   ISPIN = 1
   NKREDX = 2
   NKREDY = 2
   NELM = 200
   NELMIN = 8
   NCORE = 19
   KPAR = 1
   LWAVE = .FALSE.
   LCHARG = .FALSE.

 POTCAR:    PAW_PBE C 08Apr2002                   
 POTCAR:    PAW_PBE O 08Apr2002                   
 POTCAR:    PAW_PBE H 15Jun2001                   
 POTCAR:    PAW_PBE Ti 08Apr2002                  
 POTCAR:    PAW_PBE O 08Apr2002                   
 POTCAR:    PAW_PBE C 08Apr2002                   
   SHA256 =  253f7b50bb8d59471dbedb8285d89021f4a42ed1a2c5d38a03a736e69125dd95 C/POTCAR              
   COPYR  = (c) Copyright 08Apr2002 Georg Kresse                                                    
   COPYR  = This file is part of the software VASP. Any use, copying, and all other rights are regul
   COPYR  = If you do not have a valid VASP license, you may not use, copy or distribute this file. 
   VRHFIN =C: s2p2                                                                                  
   LEXCH  = PE                                                                                      
   EATOM  =   147.1560 eV,   10.8157 Ry                                                             
                                                                                                    
   TITEL  = PAW_PBE C 08Apr2002                                                                     
   LULTRA =        F    use ultrasoft PP ?                                                          
   IUNSCR =        1    unscreen: 0-lin 1-nonlin 2-no                                               
   RPACOR =    1.200    partial core radius                                                         
   POMASS =   12.011; ZVAL   =    4.000    mass and valenz                                          
   RCORE  =    1.500    outmost cutoff radius                                                       
   RWIGS  =    1.630; RWIGS  =    0.863    wigner-seitz radius (au A)                               
   ENMAX  =  400.000; ENMIN  =  300.000 eV                                                          
   ICORE  =        2    local potential                                                             
   LCOR   =        T    correct aug charges                                                         
   LPAW   =        T    paw PP                                                                      
   EAUG   =  644.873                                                                                
   DEXC   =    0.000                                                                                
   RMAX   =    1.529    core radius for proj-oper                                                   
   RAUG   =    1.300    factor for augmentation sphere                                              
   RDEP   =    1.501    radius for radial grids                                                     
   RDEPT  =    1.300    core radius for aug-charge                                                  
                                                                                                    
   Atomic configuration                                                                             
    4 entries                                                                                       
     n  l   j            E        occ.                                                              
     1  0  0.50      -273.3789   2.0000                                                             
     2  0  0.50       -13.7508   2.0000                                                             
     2  1  0.50        -5.2854   2.0000                                                             
     3  2  1.50        -5.4423   0.0000                                                             
   Description                                                                                      
     l       E           TYP  RCUT    TYP  RCUT                                                     
     0    -13.7508458     23  1.200                                                                 
     0     -8.2022199     23  1.200                                                                 
     1     -5.2854383     23  1.500                                                                 
     1     34.0145650     23  1.500                                                                 
     2     -5.4423304      7  1.500                                                                 
  local pseudopotential read in
  partial core-charges read in
  partial kinetic energy density read in
  atomic valenz-charges read in
  non local Contribution for L=           0  read in
    real space projection operators read in
  non local Contribution for L=           0  read in
    real space projection operators read in
  non local Contribution for L=           1  read in
    real space projection operators read in
  non local Contribution for L=           1  read in
    real space projection operators read in
    PAW grid and wavefunctions read in
 
   number of l-projection  operators is LMAX  =           4
   number of lm-projection operators is LMMAX =           8
 
 POTCAR:    PAW_PBE O 08Apr2002                   
   SHA256 =  818f92134a0a090dccd8ba1447fa70422a3b330e708bb4f08108d8ae51209ddf O/POTCAR              
   COPYR  = (c) Copyright 08Apr2002 Georg Kresse                                                    
   COPYR  = This file is part of the software VASP. Any use, copying, and all other rights are regul
   COPYR  = If you do not have a valid VASP license, you may not use, copy or distribute this file. 
   VRHFIN =O: s2p4                                                                                  
   LEXCH  = PE                                                                                      
   EATOM  =   432.3788 eV,   31.7789 Ry                                                             
                                                                                                    
   TITEL  = PAW_PBE O 08Apr2002                                                                     
   LULTRA =        F    use ultrasoft PP ?                                                          
   IUNSCR =        1    unscreen: 0-lin 1-nonlin 2-no                                               
   RPACOR =    1.200    partial core radius                                                         
   POMASS =   16.000; ZVAL   =    6.000    mass and valenz                                          
   RCORE  =    1.520    outmost cutoff radius                                                       
   RWIGS  =    1.550; RWIGS  =    0.820    wigner-seitz radius (au A)                               
   ENMAX  =  400.000; ENMIN  =  300.000 eV                                                          
   ICORE  =        2    local potential                                                             
   LCOR   =        T    correct aug charges                                                         
   LPAW   =        T    paw PP                                                                      
   EAUG   =  605.392                                                                                
   DEXC   =    0.000                                                                                
   RMAX   =    1.553    core radius for proj-oper                                                   
   RAUG   =    1.300    factor for augmentation sphere                                              
   RDEP   =    1.550    radius for radial grids                                                     
   RDEPT  =    1.329    core radius for aug-charge                                                  
                                                                                                    
   Atomic configuration                                                                             
    4 entries                                                                                       
     n  l   j            E        occ.                                                              
     1  0  0.50      -514.6923   2.0000                                                             
     2  0  0.50       -23.9615   2.0000                                                             
     2  1  0.50        -9.0305   4.0000                                                             
     3  2  1.50        -9.5241   0.0000                                                             
   Description                                                                                      
     l       E           TYP  RCUT    TYP  RCUT                                                     
     0    -23.9615318     23  1.200                                                                 
     0     -9.5240782     23  1.200                                                                 
     1     -9.0304911     23  1.520                                                                 
     1      8.1634956     23  1.520                                                                 
     2     -9.5240782      7  1.500                                                                 
  local pseudopotential read in
  partial core-charges read in
  partial kinetic energy density read in
  kinetic energy density of atom read in
  atomic valenz-charges read in
  non local Contribution for L=           0  read in
    real space projection operators read in
  non local Contribution for L=           0  read in
    real space projection operators read in
  non local Contribution for L=           1  read in
    real space projection operators read in
  non local Contribution for L=           1  read in
    real space projection operators read in
    PAW grid and wavefunctions read in
 
   number of l-projection  operators is LMAX  =           4
   number of lm-projection operators is LMMAX =           8
 
 POTCAR:    PAW_PBE H 15Jun2001                   
   SHA256 =  030f79b5d3ab3cf0e668861823c8fb652ff669f3e15e46930bd03bfd63a607b6 H/POTCAR              
   COPYR  = (c) Copyright 15Jun2001 Georg Kresse                                                    
   COPYR  = This file is part of the software VASP. Any use, copying, and all other rights are regul
   COPYR  = If you do not have a valid VASP license, you may not use, copy or distribute this file. 
   VRHFIN =H: ultrasoft test                                                                        
   LEXCH  = PE                                                                                      
   EATOM  =    12.4884 eV,    0.9179 Ry                                                             
                                                                                                    
   TITEL  = PAW_PBE H 15Jun2001                                                                     
   LULTRA =        F    use ultrasoft PP ?                                                          
   IUNSCR =        0    unscreen: 0-lin 1-nonlin 2-no                                               
   RPACOR =    0.000    partial core radius                                                         
   POMASS =    1.000; ZVAL   =    1.000    mass and valenz                                          
   RCORE  =    1.100    outmost cutoff radius                                                       
   RWIGS  =    0.700; RWIGS  =    0.370    wigner-seitz radius (au A)                               
   ENMAX  =  250.000; ENMIN  =  200.000 eV                                                          
   RCLOC  =    0.701    cutoff for local pot                                                        
   LCOR   =        T    correct aug charges                                                         
   LPAW   =        T    paw PP                                                                      
   EAUG   =  400.000                                                                                
   RMAX   =    1.123    core radius for proj-oper                                                   
   RAUG   =    1.200    factor for augmentation sphere                                              
   RDEP   =    1.112    radius for radial grids                                                     
   RDEPT  =    0.926    core radius for aug-charge                                                  
                                                                                                    
   Atomic configuration                                                                             
    2 entries                                                                                       
     n  l   j            E        occ.                                                              
     1  0  0.50        -6.4927   1.0000                                                             
     2  1  0.50        -3.4015   0.0000                                                             
   Description                                                                                      
     l       E           TYP  RCUT    TYP  RCUT                                                     
     0     -6.4927494     23  1.100                                                                 
     0      6.8029130     23  1.100                                                                 
     1     -4.0817478     23  1.100                                                                 
  local pseudopotential read in
  atomic valenz-charges read in
  non local Contribution for L=           0  read in
    real space projection operators read in
  non local Contribution for L=           0  read in
    real space projection operators read in
  non local Contribution for L=           1  read in
    real space projection operators read in
    PAW grid and wavefunctions read in
 
   number of l-projection  operators is LMAX  =           3
   number of lm-projection operators is LMMAX =           5
 
 POTCAR:    PAW_PBE Ti 08Apr2002                  
   SHA256 =  f8e8f1d080d9e9b45e792f1068744b07aba8441d1e7ce11486a5d4c0f5a1479e Ti/POTCAR             
   COPYR  = (c) Copyright 08Apr2002 Georg Kresse                                                    
   COPYR  = This file is part of the software VASP. Any use, copying, and all other rights are regul
   COPYR  = If you do not have a valid VASP license, you may not use, copy or distribute this file. 
   VRHFIN =Ti: d3 s1                                                                                
   LEXCH  = PE                                                                                      
   EATOM  =    94.7928 eV,    6.9671 Ry                                                             
                                                                                                    
   TITEL  = PAW_PBE Ti 08Apr2002                                                                    
   LULTRA =        F    use ultrasoft PP ?                                                          
   IUNSCR =        1    unscreen: 0-lin 1-nonlin 2-no                                               
   RPACOR =    2.200    partial core radius                                                         
   POMASS =   47.880; ZVAL   =    4.000    mass and valenz                                          
   RCORE  =    2.800    outmost cutoff radius                                                       
   RWIGS  =    2.500; RWIGS  =    1.323    wigner-seitz radius (au A)                               
   ENMAX  =  178.330; ENMIN  =  133.747 eV                                                          
   RCLOC  =    2.215    cutoff for local pot                                                        
   LCOR   =        T    correct aug charges                                                         
   LPAW   =        T    paw PP                                                                      
   EAUG   =  328.883                                                                                
   DEXC   =    0.000                                                                                
   RMAX   =    2.868    core radius for proj-oper                                                   
   RAUG   =    1.300    factor for augmentation sphere                                              
   RDEP   =    2.885    radius for radial grids                                                     
   RDEPT  =    2.320    core radius for aug-charge                                                  
                                                                                                    
   Atomic configuration                                                                             
    9 entries                                                                                       
     n  l   j            E        occ.                                                              
     1  0  0.50     -4865.3608   2.0000                                                             
     2  0  0.50      -533.1367   2.0000                                                             
     2  1  1.50      -440.5031   6.0000                                                             
     3  0  0.50       -59.3186   2.0000                                                             
     3  1  1.50       -35.7012   6.0000                                                             
     3  2  2.50        -1.9157   3.0000                                                             
     4  0  0.50        -3.7291   1.0000                                                             
     4  1  1.50        -4.0817   0.0000                                                             
     4  3  2.50        -1.3606   0.0000                                                             
   Description                                                                                      
     l       E           TYP  RCUT    TYP  RCUT                                                     
     2     -1.9156924     23  2.800                                                                 
     2     -0.4062961     23  2.800                                                                 
     0     -3.7290832     23  2.800                                                                 
     0     20.4087390     23  2.800                                                                 
     1     -5.4423304     23  2.800                                                                 
  local pseudopotential read in
  partial core-charges read in
  partial kinetic energy density read in
  atomic valenz-charges read in
  non local Contribution for L=           2  read in
    real space projection operators read in
  non local Contribution for L=           2  read in
    real space projection operators read in
  non local Contribution for L=           0  read in
    real space projection operators read in
  non local Contribution for L=           0  read in
    real space projection operators read in
  non local Contribution for L=           1  read in
    real space projection operators read in
    PAW grid and wavefunctions read in
 
   number of l-projection  operators is LMAX  =           5
   number of lm-projection operators is LMMAX =          15
 
 POTCAR:    PAW_PBE O 08Apr2002                   
   SHA256 =  818f92134a0a090dccd8ba1447fa70422a3b330e708bb4f08108d8ae51209ddf O/POTCAR              
   COPYR  = (c) Copyright 08Apr2002 Georg Kresse                                                    
   COPYR  = This file is part of the software VASP. Any use, copying, and all other rights are regul
   COPYR  = If you do not have a valid VASP license, you may not use, copy or distribute this file. 
   VRHFIN =O: s2p4                                                                                  
   LEXCH  = PE                                                                                      
   EATOM  =   432.3788 eV,   31.7789 Ry                                                             
                                                                                                    
   TITEL  = PAW_PBE O 08Apr2002                                                                     
   LULTRA =        F    use ultrasoft PP ?                                                          
   IUNSCR =        1    unscreen: 0-lin 1-nonlin 2-no                                               
   RPACOR =    1.200    partial core radius                                                         
   POMASS =   16.000; ZVAL   =    6.000    mass and valenz                                          
   RCORE  =    1.520    outmost cutoff radius                                                       
   RWIGS  =    1.550; RWIGS  =    0.820    wigner-seitz radius (au A)                               
   ENMAX  =  400.000; ENMIN  =  300.000 eV                                                          
   ICORE  =        2    local potential                                                             
   LCOR   =        T    correct aug charges                                                         
   LPAW   =        T    paw PP                                                                      
   EAUG   =  605.392                                                                                
   DEXC   =    0.000                                                                                
   RMAX   =    1.553    core radius for proj-oper                                                   
   RAUG   =    1.300    factor for augmentation sphere                                              
   RDEP   =    1.550    radius for radial grids                                                     
   RDEPT  =    1.329    core radius for aug-charge                                                  
                                                                                                    
   Atomic configuration                                                                             
    4 entries                                                                                       
     n  l   j            E        occ.                                                              
     1  0  0.50      -514.6923   2.0000                                                             
     2  0  0.50       -23.9615   2.0000                                                             
     2  1  0.50        -9.0305   4.0000                                                             
     3  2  1.50        -9.5241   0.0000                                                             
   Description                                                                                      
     l       E           TYP  RCUT    TYP  RCUT                                                     
     0    -23.9615318     23  1.200                                                                 
     0     -9.5240782     23  1.200                                                                 
     1     -9.0304911     23  1.520                                                                 
     1      8.1634956     23  1.520                                                                 
     2     -9.5240782      7  1.500                                                                 
  local pseudopotential read in
  partial core-charges read in
  partial kinetic energy density read in
  kinetic energy density of atom read in
  atomic valenz-charges read in
  non local Contribution for L=           0  read in
    real space projection operators read in
  non local Contribution for L=           0  read in
    real space projection operators read in
  non local Contribution for L=           1  read in
    real space projection operators read in
  non local Contribution for L=           1  read in
    real space projection operators read in
    PAW grid and wavefunctions read in
 
   number of l-projection  operators is LMAX  =           4
   number of lm-projection operators is LMMAX =           8
 
 -----------------------------------------------------------------------------
|                                                                             |
|               ----> ADVICE to this user running VASP <----                  |
|                                                                             |
|     You have a (more or less) 'large supercell' and for larger cells it     |
|     might be more efficient to use real-space projection operators.         |
|     Therefore, try LREAL= Auto in the INCAR file.                           |
|     Mind: For very accurate calculation, you might also keep the            |
|     reciprocal projection scheme (i.e. LREAL=.FALSE.).                      |
|                                                                             |
 -----------------------------------------------------------------------------

  PAW_PBE C 08Apr2002                   :
 energy of atom  1       EATOM= -147.1560
 kinetic energy error for atom=    0.0071 (will be added to EATOM!!)
  PAW_PBE O 08Apr2002                   :
 energy of atom  2       EATOM= -432.3788
 kinetic energy error for atom=    0.0208 (will be added to EATOM!!)
  PAW_PBE H 15Jun2001                   :
 energy of atom  3       EATOM=  -12.4884
 kinetic energy error for atom=    0.0014 (will be added to EATOM!!)
  PAW_PBE Ti 08Apr2002                  :
 energy of atom  4       EATOM=  -94.7928
 kinetic energy error for atom=    0.0002 (will be added to EATOM!!)
  PAW_PBE O 08Apr2002                   :
 energy of atom  5       EATOM= -432.3788
 kinetic energy error for atom=    0.0208 (will be added to EATOM!!)
 
 
 POSCAR:  C  O  H Ti  O
  positions in direct lattice
  velocities in cartesian coordinates
 -----------------------------------------------------------------------------
|                                                                             |
|           W    W    AA    RRRRR   N    N  II  N    N   GGGG   !!!           |
|           W    W   A  A   R    R  NN   N  II  NN   N  G    G  !!!           |
|           W    W  A    A  R    R  N N  N  II  N N  N  G       !!!           |
|           W WW W  AAAAAA  RRRRR   N  N N  II  N  N N  G  GGG   !            |
|           WW  WW  A    A  R   R   N   NN  II  N   NN  G    G                |
|           W    W  A    A  R    R  N    N  II  N    N   GGGG   !!!           |
|                                                                             |
|     Specifying the vdW parameters                                           |
|     VDW_S8 = 1.195                                                          |
|     VDW_A1 = 0.387                                                          |
|     VDW_A2 = 5.191                                                          |
|     in the INCAR file will overwrite the defaults for hse06. Please         |
|     make sure that is what you intended.                                    |
|                                                                             |
 -----------------------------------------------------------------------------

 exchange correlation table for  LEXCH =        8
   RHO(1)=    0.500       N(1)  =     2000
   RHO(2)=  100.500       N(2)  =     4000
 


--------------------------------------------------------------------------------------------------------


 ion  position               nearest neighbor table
   1  0.509  0.588  0.844-   3 1.09   5 1.09   6 1.09   2 1.43
   2  0.539  0.500  0.811-   4 0.99   1 1.43  86 2.13
   3  0.425  0.596  0.842-   1 1.09
   4  0.615  0.495  0.810-   2 0.99
   5  0.532  0.564  0.881-   1 1.09
   6  0.546  0.668  0.835-   1 1.09
   7  0.750  0.625  0.264-  88 1.94 148 1.94 147 1.94  87 1.94 169 1.97  90 1.97  17 2.94  37 2.94

   8  0.000  0.750  0.264-  90 1.94 110 1.94 109 1.94  89 1.94  91 1.97  38 2.94  18 2.94
   9  0.000  0.625  0.382-  92 1.94 152 1.94 151 1.94  91 1.94  93 1.97  94 1.97  19 2.94  39 2.94

  10  0.750  0.750  0.382- 174 1.94 194 1.94  93 1.94 113 1.94  95 1.97  88 1.97  20 2.94  40 2.94

  11  0.750  0.625  0.500-  95 1.94  96 1.94 155 1.94 156 1.94  98 1.97 177 1.97  21 2.94  41 2.94

  12  0.000  0.750  0.500-  97 1.94  98 1.94 117 1.94 118 1.94  92 1.97  99 1.98  22 2.94  42 2.94

  13  0.001  0.625  0.615- 159 1.89  99 1.89 102 1.94 101 1.95 100 2.00 160 2.00  23 2.94  43 2.94

  14  0.751  0.750  0.621- 103 1.87 182 1.96 202 1.96 101 1.96 121 1.96  96 2.07  24 2.94  44 2.94

  15  0.751  0.626  0.741- 104 1.83 164 1.86 185 2.00 106 2.01 103 2.05 163 2.06  25 2.93  45 2.97

  16  0.000  0.750  0.731- 100 1.81 125 1.93 126 1.93 105 1.94 106 1.94  26 2.94  46 2.94
  17  0.750  0.875  0.264-  88 1.94 108 1.94 107 1.94  87 1.94 189 1.97 110 1.97   7 2.94  27 2.94

  18  0.000  0.000  0.264- 110 1.94 130 1.94 129 1.94 109 1.94 111 1.97  28 2.94   8 2.94
  19  0.000  0.875  0.382-  92 1.94 112 1.94 111 1.94  91 1.94 113 1.97 114 1.97   9 2.94  29 2.94

  20  0.750  0.000  0.382- 194 1.94 214 1.94 113 1.94 133 1.94 115 1.97 108 1.97  10 2.94  30 2.94

  21  0.750  0.875  0.500-  95 1.94  96 1.94 115 1.94 116 1.94 118 1.97 197 1.97  11 2.94  31 2.94

  22  0.000  0.000  0.500- 117 1.94 118 1.94 137 1.94 138 1.94 112 1.97 119 1.98  12 2.94  32 2.94

  23  0.000  0.875  0.616-  99 1.89 119 1.89 122 1.94 121 1.94 120 2.00 100 2.00  33 2.94  13 2.94

  24  0.750  0.000  0.622- 123 1.87 222 1.95 202 1.96 121 1.96 141 1.96 116 2.08  34 2.94  14 2.94

  25  0.750  0.875  0.743- 124 1.83 104 1.84 205 2.02 126 2.03 123 2.06 103 2.07  15 2.93  35 2.93

  26  0.000  1.000  0.731- 120 1.81 145 1.93 146 1.93 126 1.93 125 1.93  16 2.94  36 2.94
  27  0.750  0.125  0.264- 108 1.94 128 1.94 127 1.94 107 1.94 209 1.97 130 1.97  17 2.94  37 2.94

  28  0.000  0.250  0.264- 130 1.94 150 1.94 149 1.94 129 1.94 131 1.97  38 2.94  18 2.94
  29  0.000  0.125  0.382- 112 1.94 132 1.94 131 1.94 111 1.94 133 1.97 134 1.97  19 2.94  39 2.94

  30  0.750  0.250  0.382- 214 1.94 234 1.94 133 1.94 153 1.94 135 1.97 128 1.97  20 2.94  40 2.94

  31  0.750  0.125  0.500- 115 1.94 116 1.94 135 1.94 136 1.94 138 1.97 217 1.97  21 2.94  41 2.94

  32  0.000  0.250  0.500- 137 1.94 138 1.94 157 1.94 158 1.94 132 1.97 139 1.98  22 2.94  42 2.94

  33  1.000  0.125  0.616- 139 1.89 119 1.89 142 1.94 141 1.94 120 2.00 140 2.00  23 2.94  43 2.94

  34  0.750  0.250  0.621- 143 1.88 222 1.95 242 1.95 161 1.96 141 1.96 136 2.07  24 2.94  44 2.94

  35  0.750  0.125  0.743- 124 1.83 144 1.84 225 2.01 146 2.03 123 2.06 143 2.07  45 2.93  25 2.93

  36  0.000  0.250  0.731- 140 1.81 145 1.93 146 1.93 165 1.94 166 1.94  26 2.94  46 2.94
  37  0.750  0.375  0.264- 128 1.94 148 1.94 147 1.94 127 1.94 229 1.97 150 1.97   7 2.94  27 2.94

  38  0.000  0.500  0.264-  90 1.94 150 1.94 149 1.94  89 1.94 151 1.97  28 2.94   8 2.94
  39  0.000  0.375  0.382- 132 1.94 152 1.94 151 1.94 131 1.94 153 1.97 154 1.97   9 2.94  29 2.94

  40  0.750  0.500  0.382- 174 1.94 234 1.94  93 1.94 153 1.94 148 1.97 155 1.97  10 2.94  30 2.94

  41  0.750  0.375  0.500- 135 1.94 136 1.94 155 1.94 156 1.94 158 1.97 237 1.97  11 2.94  31 2.94

  42  0.000  0.500  0.500-  97 1.94  98 1.94 157 1.94 158 1.94 152 1.97 159 1.98  12 2.94  32 2.94

  43  0.000  0.375  0.615- 159 1.89 139 1.89 162 1.94 161 1.94 140 2.00 160 2.00  33 2.94  13 2.94

  44  0.751  0.500  0.622- 163 1.87 161 1.96 101 1.96 242 1.96 182 1.96 156 2.07  34 2.94  14 2.94

  45  0.751  0.374  0.742- 144 1.82 164 1.86 166 2.01 245 2.01 143 2.04 163 2.07  35 2.93  15 2.97

  46  0.001  0.500  0.731- 160 1.81 165 1.93 105 1.93 106 1.93 166 1.94  16 2.94  36 2.94
  47  0.250  0.625  0.264- 168 1.94 228 1.94 227 1.94 167 1.94  89 1.97 170 1.97  57 2.94  77 2.94

  48  0.500  0.750  0.264- 170 1.94 190 1.94 189 1.94 169 1.94 171 1.97  78 2.94  58 2.94
  49  0.500  0.625  0.382- 172 1.94 232 1.94 231 1.94 171 1.94 173 1.97 174 1.97  59 2.94  79 2.94

  50  0.250  0.750  0.382-  94 1.94 114 1.94 173 1.94 193 1.94 175 1.97 168 1.97  60 2.94  80 2.94

  51  0.250  0.625  0.500- 175 1.94 176 1.94 235 1.94 236 1.94 178 1.97  97 1.97  61 2.94  81 2.94

  52  0.500  0.750  0.500- 177 1.94 197 1.94 178 1.94 198 1.94 172 1.97 179 1.98  62 2.94  82 2.94

  53  0.501  0.623  0.617- 239 1.89 179 1.93 182 1.94 181 1.96 240 1.96 180 1.98  83 2.88  63 2.96

  54  0.251  0.750  0.622- 183 1.87 181 1.95 201 1.95 102 1.96 122 1.97 176 2.08  84 2.94  64 2.94

  55  0.251  0.625  0.743- 184 1.83 244 1.83 105 2.02 186 2.03 183 2.06 243 2.06  65 2.94  85 2.94

  56  0.500  0.750  0.729- 180 1.81 185 1.90 186 1.93 205 1.93 206 1.94  66 2.94  86 2.95
  57  0.250  0.875  0.264- 168 1.94 188 1.94 187 1.94 167 1.94 109 1.97 190 1.97  47 2.94  67 2.94

  58  0.500  0.000  0.264- 190 1.94 210 1.94 209 1.94 189 1.94 191 1.97  68 2.94  48 2.94
  59  0.500  0.875  0.382- 172 1.94 192 1.94 191 1.94 171 1.94 193 1.97 194 1.97  49 2.94  69 2.94

  60  0.250  0.000  0.382- 114 1.94 134 1.94 193 1.94 213 1.94 195 1.97 188 1.97  50 2.94  70 2.94

  61  0.250  0.875  0.500- 175 1.94 176 1.94 195 1.94 196 1.94 198 1.97 117 1.97  51 2.94  71 2.94

  62  0.500  0.000  0.500- 197 1.94 217 1.94 198 1.94 218 1.94 199 1.97 192 1.97  52 2.94  72 2.94

  63  0.500  0.874  0.614- 179 1.88 199 1.89 201 1.95 202 1.95 180 1.98 200 2.01  53 2.96  73 2.97

  64  0.250  1.000  0.622- 203 1.87 201 1.96 221 1.96 122 1.96 142 1.96 196 2.08  54 2.94  74 2.94

  65  0.251  0.875  0.743- 204 1.83 184 1.83 206 2.01 125 2.03 203 2.07 183 2.07  75 2.94  55 2.94

  66  0.500  0.000  0.730- 200 1.81 206 1.93 226 1.93 225 1.94 205 1.94  56 2.94  76 2.94
  67  0.250  0.125  0.264- 188 1.94 208 1.94 207 1.94 187 1.94 129 1.97 210 1.97  57 2.94  77 2.94

  68  0.500  0.250  0.264- 210 1.94 230 1.94 229 1.94 209 1.94 211 1.97  78 2.94  58 2.94
  69  0.500  0.125  0.382- 192 1.94 212 1.94 211 1.94 191 1.94 213 1.97 214 1.97  59 2.94  79 2.94

  70  0.250  0.250  0.382- 134 1.94 154 1.94 213 1.94 233 1.94 215 1.97 208 1.97  60 2.94  80 2.94

  71  0.250  0.125  0.500- 195 1.94 196 1.94 215 1.94 216 1.94 218 1.97 137 1.97  61 2.94  81 2.94

  72  0.500  0.250  0.500- 217 1.94 237 1.94 218 1.94 238 1.94 212 1.97 219 1.98  62 2.94  82 2.94

  73  0.499  0.126  0.614- 219 1.88 199 1.89 221 1.94 222 1.96 220 1.98 200 2.01  83 2.96  63 2.97

  74  0.250  0.250  0.622- 223 1.87 241 1.95 221 1.96 162 1.96 142 1.96 216 2.08  84 2.94  64 2.94

  75  0.251  0.125  0.743- 204 1.83 224 1.83 226 2.01 145 2.03 203 2.07 223 2.07  65 2.94  85 2.94

  76  0.500  0.250  0.730- 220 1.81 245 1.91 246 1.92 225 1.93 226 1.94  66 2.94  86 2.94
  77  0.250  0.375  0.264- 208 1.94 228 1.94 227 1.94 207 1.94 149 1.97 230 1.97  47 2.94  67 2.94

  78  0.500  0.500  0.264- 170 1.94 230 1.94 229 1.94 169 1.94 231 1.97  68 2.94  48 2.94
  79  0.500  0.375  0.382- 212 1.94 232 1.94 231 1.94 211 1.94 233 1.97 234 1.97  49 2.94  69 2.94

  80  0.250  0.500  0.382-  94 1.94 154 1.94 173 1.94 233 1.94 228 1.97 235 1.97  50 2.94  70 2.94

  81  0.250  0.375  0.500- 215 1.94 216 1.94 235 1.94 236 1.94 238 1.97 157 1.97  51 2.94  71 2.94

  82  0.500  0.500  0.500- 177 1.94 237 1.94 178 1.94 238 1.94 232 1.97 239 1.99  52 2.94  72 2.94

  83  0.500  0.377  0.617- 239 1.89 219 1.93 242 1.95 241 1.95 240 1.96 220 1.99  53 2.88  73 2.96

  84  0.251  0.500  0.622- 243 1.87 181 1.95 241 1.95 162 1.97 102 1.97 236 2.08  54 2.94  74 2.94

  85  0.251  0.375  0.743- 224 1.83 244 1.83 246 2.02 165 2.03 223 2.07 243 2.07  75 2.94  55 2.94

  86  0.502  0.500  0.735- 240 1.92 246 1.93 186 1.93 245 1.94 185 1.96   2 2.13  76 2.94  56 2.95

  87  0.750  0.750  0.218-   7 1.94  17 1.94
  88  0.750  0.750  0.311-   7 1.94  17 1.94  10 1.97
  89  0.098  0.625  0.264-   8 1.94  38 1.94  47 1.97
  90  0.902  0.625  0.264-   8 1.94  38 1.94   7 1.97
  91  0.000  0.750  0.336-   9 1.94  19 1.94   8 1.97
  92  0.000  0.750  0.428-   9 1.94  19 1.94  12 1.97
  93  0.848  0.625  0.382-  10 1.94  40 1.94   9 1.97
  94  0.152  0.625  0.382-  50 1.94  80 1.94   9 1.97
  95  0.750  0.750  0.454-  11 1.94  21 1.94  10 1.97
  96  0.750  0.750  0.546-  11 1.94  21 1.94  14 2.07
  97  0.098  0.625  0.500-  12 1.94  42 1.94  51 1.97
  98  0.902  0.625  0.500-  12 1.94  42 1.94  11 1.97
  99  0.000  0.750  0.572-  23 1.89  13 1.89  12 1.98
 100  0.999  0.750  0.665-  16 1.81  13 2.00  23 2.00
 101  0.850  0.625  0.618-  13 1.95  44 1.96  14 1.96
 102  0.150  0.625  0.618-  13 1.94  54 1.96  84 1.97
 103  0.754  0.751  0.690-  14 1.87  15 2.05  25 2.07
 104  0.748  0.749  0.782-  15 1.83  25 1.84
 105  0.094  0.625  0.742-  46 1.93  16 1.94  55 2.02
 106  0.907  0.624  0.743-  46 1.93  16 1.94  15 2.01
 107  0.750  0.000  0.218-  17 1.94  27 1.94
 108  0.750  0.000  0.311-  17 1.94  27 1.94  20 1.97
 109  0.098  0.875  0.264-   8 1.94  18 1.94  57 1.97
 110  0.902  0.875  0.264-   8 1.94  18 1.94  17 1.97
 111  0.000  0.000  0.336-  19 1.94  29 1.94  18 1.97
 112  0.000  0.000  0.428-  19 1.94  29 1.94  22 1.97
 113  0.848  0.875  0.382-  10 1.94  20 1.94  19 1.97
 114  0.152  0.875  0.382-  50 1.94  60 1.94  19 1.97
 115  0.750  0.000  0.454-  21 1.94  31 1.94  20 1.97
 116  0.750  0.000  0.546-  21 1.94  31 1.94  24 2.08
 117  0.098  0.875  0.500-  12 1.94  22 1.94  61 1.97
 118  0.902  0.875  0.500-  12 1.94  22 1.94  21 1.97
 119  0.000  0.000  0.572-  33 1.89  23 1.89  22 1.98
 120  1.000  1.000  0.665-  26 1.81  23 2.00  33 2.00
 121  0.850  0.876  0.618-  23 1.94  14 1.96  24 1.96
 122  0.150  0.875  0.619-  23 1.94  64 1.96  54 1.97
 123  0.750  1.000  0.690-  24 1.87  35 2.06  25 2.06
 124  0.750  1.000  0.783-  35 1.83  25 1.83
 125  0.094  0.875  0.742-  16 1.93  26 1.93  65 2.03
 126  0.907  0.875  0.743-  16 1.93  26 1.93  25 2.03
 127  0.750  0.250  0.218-  27 1.94  37 1.94
 128  0.750  0.250  0.311-  27 1.94  37 1.94  30 1.97
 129  0.098  0.125  0.264-  18 1.94  28 1.94  67 1.97
 130  0.902  0.125  0.264-  18 1.94  28 1.94  27 1.97
 131  0.000  0.250  0.336-  29 1.94  39 1.94  28 1.97
 132  0.000  0.250  0.428-  29 1.94  39 1.94  32 1.97
 133  0.848  0.125  0.382-  20 1.94  30 1.94  29 1.97
 134  0.152  0.125  0.382-  60 1.94  70 1.94  29 1.97
 135  0.750  0.250  0.454-  31 1.94  41 1.94  30 1.97
 136  0.750  0.250  0.546-  31 1.94  41 1.94  34 2.07
 137  0.098  0.125  0.500-  22 1.94  32 1.94  71 1.97
 138  0.902  0.125  0.500-  22 1.94  32 1.94  31 1.97
 139  0.000  0.250  0.572-  33 1.89  43 1.89  32 1.98
 140  1.000  0.250  0.665-  36 1.81  43 2.00  33 2.00
 141  0.850  0.125  0.618-  33 1.94  24 1.96  34 1.96
 142  0.150  0.125  0.619-  33 1.94  64 1.96  74 1.96
 143  0.753  0.250  0.690-  34 1.88  45 2.04  35 2.07
 144  0.750  0.251  0.782-  45 1.82  35 1.84
 145  0.094  0.125  0.742-  36 1.93  26 1.93  75 2.03
 146  0.907  0.125  0.742-  36 1.93  26 1.93  35 2.03
 147  0.750  0.500  0.218-   7 1.94  37 1.94
 148  0.750  0.500  0.311-   7 1.94  37 1.94  40 1.97
 149  0.098  0.375  0.264-  28 1.94  38 1.94  77 1.97
 150  0.902  0.375  0.264-  28 1.94  38 1.94  37 1.97
 151  0.000  0.500  0.336-   9 1.94  39 1.94  38 1.97
 152  0.000  0.500  0.428-   9 1.94  39 1.94  42 1.97
 153  0.848  0.375  0.382-  30 1.94  40 1.94  39 1.97
 154  0.152  0.375  0.382-  70 1.94  80 1.94  39 1.97
 155  0.750  0.500  0.454-  11 1.94  41 1.94  40 1.97
 156  0.750  0.500  0.546-  11 1.94  41 1.94  44 2.07
 157  0.098  0.375  0.500-  32 1.94  42 1.94  81 1.97
 158  0.902  0.375  0.500-  32 1.94  42 1.94  41 1.97
 159  0.000  0.500  0.572-  43 1.89  13 1.89  42 1.98
 160  1.000  0.500  0.665-  46 1.81  13 2.00  43 2.00
 161  0.850  0.375  0.618-  43 1.94  44 1.96  34 1.96
 162  0.150  0.375  0.618-  43 1.94  74 1.96  84 1.97
 163  0.755  0.500  0.689-  44 1.87  15 2.06  45 2.07
 164  0.739  0.500  0.782-  15 1.86  45 1.86
 165  0.094  0.375  0.742-  46 1.93  36 1.94  85 2.03
 166  0.907  0.376  0.743-  46 1.94  36 1.94  45 2.01
 167  0.250  0.750  0.218-  47 1.94  57 1.94
 168  0.250  0.750  0.311-  47 1.94  57 1.94  50 1.97
 169  0.598  0.625  0.264-  48 1.94  78 1.94   7 1.97
 170  0.402  0.625  0.264-  48 1.94  78 1.94  47 1.97
 171  0.500  0.750  0.336-  49 1.94  59 1.94  48 1.97
 172  0.500  0.750  0.428-  49 1.94  59 1.94  52 1.97
 173  0.348  0.625  0.382-  50 1.94  80 1.94  49 1.97
 174  0.652  0.625  0.382-  10 1.94  40 1.94  49 1.97
 175  0.250  0.750  0.454-  51 1.94  61 1.94  50 1.97
 176  0.250  0.750  0.546-  51 1.94  61 1.94  54 2.08
 177  0.598  0.625  0.500-  52 1.94  82 1.94  11 1.97
 178  0.402  0.625  0.500-  52 1.94  82 1.94  51 1.97
 179  0.500  0.749  0.572-  63 1.88  53 1.93  52 1.98
 180  0.498  0.752  0.663-  56 1.81  63 1.98  53 1.98
 181  0.349  0.625  0.618-  84 1.95  54 1.95  53 1.96
 182  0.651  0.625  0.619-  53 1.94  14 1.96  44 1.96
 183  0.251  0.750  0.690-  54 1.87  55 2.06  65 2.07
 184  0.251  0.750  0.782-  55 1.83  65 1.83
 185  0.597  0.630  0.736-  56 1.90  86 1.96  15 2.00
 186  0.408  0.626  0.743-  86 1.93  56 1.93  55 2.03
 187  0.250  0.000  0.218-  57 1.94  67 1.94
 188  0.250  0.000  0.311-  57 1.94  67 1.94  60 1.97
 189  0.598  0.875  0.264-  48 1.94  58 1.94  17 1.97
 190  0.402  0.875  0.264-  48 1.94  58 1.94  57 1.97
 191  0.500  0.000  0.336-  59 1.94  69 1.94  58 1.97
 192  0.500  0.000  0.428-  59 1.94  69 1.94  62 1.97
 193  0.348  0.875  0.382-  50 1.94  60 1.94  59 1.97
 194  0.652  0.875  0.382-  10 1.94  20 1.94  59 1.97
 195  0.250  0.000  0.454-  61 1.94  71 1.94  60 1.97
 196  0.250  0.000  0.546-  61 1.94  71 1.94  64 2.08
 197  0.598  0.875  0.500-  52 1.94  62 1.94  21 1.97
 198  0.402  0.875  0.500-  52 1.94  62 1.94  61 1.97
 199  0.500  0.000  0.572-  63 1.89  73 1.89  62 1.97
 200  0.500  1.000  0.664-  66 1.81  73 2.01  63 2.01
 201  0.349  0.875  0.618-  63 1.95  54 1.95  64 1.96
 202  0.650  0.875  0.618-  63 1.95  24 1.96  14 1.96
 203  0.250  1.000  0.690-  64 1.87  65 2.07  75 2.07
 204  0.250  1.000  0.782-  65 1.83  75 1.83
 205  0.594  0.875  0.742-  56 1.93  66 1.94  25 2.02
 206  0.406  0.876  0.742-  66 1.93  56 1.94  65 2.01
 207  0.250  0.250  0.218-  67 1.94  77 1.94
 208  0.250  0.250  0.311-  67 1.94  77 1.94  70 1.97
 209  0.598  0.125  0.264-  58 1.94  68 1.94  27 1.97
 210  0.402  0.125  0.264-  58 1.94  68 1.94  67 1.97
 211  0.500  0.250  0.336-  69 1.94  79 1.94  68 1.97
 212  0.500  0.250  0.428-  69 1.94  79 1.94  72 1.97
 213  0.348  0.125  0.382-  60 1.94  70 1.94  69 1.97
 214  0.652  0.125  0.382-  20 1.94  30 1.94  69 1.97
 215  0.250  0.250  0.454-  71 1.94  81 1.94  70 1.97
 216  0.250  0.250  0.546-  71 1.94  81 1.94  74 2.08
 217  0.598  0.125  0.500-  62 1.94  72 1.94  31 1.97
 218  0.402  0.125  0.500-  62 1.94  72 1.94  71 1.97
 219  0.500  0.252  0.572-  73 1.88  83 1.93  72 1.98
 220  0.499  0.249  0.664-  76 1.81  73 1.98  83 1.99
 221  0.349  0.125  0.618-  73 1.94  74 1.96  64 1.96
 222  0.651  0.125  0.618-  34 1.95  24 1.95  73 1.96
 223  0.250  0.250  0.690-  74 1.87  85 2.07  75 2.07
 224  0.251  0.250  0.782-  85 1.83  75 1.83
 225  0.594  0.125  0.742-  76 1.93  66 1.94  35 2.01
 226  0.406  0.124  0.742-  66 1.93  76 1.94  75 2.01
 227  0.250  0.500  0.218-  47 1.94  77 1.94
 228  0.250  0.500  0.311-  47 1.94  77 1.94  80 1.97
 229  0.598  0.375  0.264-  68 1.94  78 1.94  37 1.97
 230  0.402  0.375  0.264-  68 1.94  78 1.94  77 1.97
 231  0.500  0.500  0.336-  49 1.94  79 1.94  78 1.97
 232  0.500  0.500  0.428-  49 1.94  79 1.94  82 1.97
 233  0.348  0.375  0.382-  70 1.94  80 1.94  79 1.97
 234  0.652  0.375  0.382-  30 1.94  40 1.94  79 1.97
 235  0.250  0.500  0.454-  51 1.94  81 1.94  80 1.97
 236  0.250  0.500  0.546-  51 1.94  81 1.94  84 2.08
 237  0.598  0.375  0.500-  72 1.94  82 1.94  41 1.97
 238  0.402  0.375  0.500-  72 1.94  82 1.94  81 1.97
 239  0.500  0.500  0.573-  53 1.89  83 1.89  82 1.99
 240  0.499  0.500  0.665-  86 1.92  53 1.96  83 1.96
 241  0.349  0.375  0.619-  84 1.95  74 1.95  83 1.95
 242  0.651  0.375  0.619-  83 1.95  34 1.95  44 1.96
 243  0.250  0.500  0.690-  84 1.87  55 2.06  85 2.07
 244  0.252  0.500  0.782-  55 1.83  85 1.83
 245  0.596  0.371  0.738-  76 1.91  86 1.94  45 2.01
 246  0.407  0.374  0.741-  76 1.92  86 1.93  85 2.02
 

IMPORTANT INFORMATION: All symmetrisations will be switched off!
NOSYMM: (Re-)initialisation of all symmetry stuff for point group C_1.


----------------------------------------------------------------------------------------

                                     Primitive cell                                     

  volume of cell :    4180.4259

  direct lattice vectors                    reciprocal lattice vectors
    12.939701814  0.000000000  0.000000000     0.077281534  0.000000000  0.000000000
     0.000000000 11.760793336  0.000000000     0.000000000  0.085028278  0.000000000
     0.000000000  0.000000000 27.470062065     0.000000000  0.000000000  0.036403267

  length of vectors
    12.939701814 11.760793336 27.470062065     0.077281534  0.085028278  0.036403267

  position of ions in fractional coordinates (direct lattice)
     0.508714236  0.587696290  0.844149838
     0.539112666  0.500088530  0.810976623
     0.425130155  0.595789958  0.842180591
     0.615486270  0.494896700  0.809721136
     0.531798900  0.563575052  0.880869241
     0.545792729  0.668277111  0.834649912
     0.750000000  0.625000000  0.264476291
     0.000000000  0.750000000  0.264476291
     0.000000000  0.625000000  0.382238145
     0.750000000  0.750000000  0.382238145
     0.750000000  0.625000000  0.500000000
     0.000000000  0.750000000  0.500000000
     0.000653989  0.625038257  0.615455397
     0.750532825  0.750169825  0.621387115
     0.751054503  0.626069165  0.741446754
     0.000026411  0.750191404  0.730742940
     0.750000000  0.875000000  0.264476291
     0.000000000  0.000000000  0.264476291
     0.000000000  0.875000000  0.382238145
     0.750000000  0.000000000  0.382238145
     0.750000000  0.875000000  0.500000000
     0.000000000  0.000000000  0.500000000
     0.000131669  0.875015753  0.615537661
     0.749693847  0.000030487  0.621795650
     0.749815200  0.875155882  0.742786070
     0.000227073  0.999916480  0.730730673
     0.750000000  0.125000000  0.264476291
     0.000000000  0.250000000  0.264476291
     0.000000000  0.125000000  0.382238145
     0.750000000  0.250000000  0.382238145
     0.750000000  0.125000000  0.500000000
     0.000000000  0.250000000  0.500000000
     0.999982733  0.124928585  0.615554693
     0.750062280  0.249835820  0.621404725
     0.749713788  0.124515761  0.742822988
     0.000124508  0.249723813  0.730755576
     0.750000000  0.375000000  0.264476291
     0.000000000  0.500000000  0.264476291
     0.000000000  0.375000000  0.382238145
     0.750000000  0.500000000  0.382238145
     0.750000000  0.375000000  0.500000000
     0.000000000  0.500000000  0.500000000
     0.000446737  0.374928723  0.615453824
     0.751221533  0.499952429  0.621581485
     0.751445400  0.373540850  0.741658645
     0.000971536  0.500030131  0.730649823
     0.250000000  0.625000000  0.264476291
     0.500000000  0.750000000  0.264476291
     0.500000000  0.625000000  0.382238145
     0.250000000  0.750000000  0.382238145
     0.250000000  0.625000000  0.500000000
     0.500000000  0.750000000  0.500000000
     0.500744869  0.622572856  0.616978191
     0.250603544  0.749921497  0.621721171
     0.250530849  0.625182637  0.742650959
     0.500251637  0.750419023  0.729263813
     0.250000000  0.875000000  0.264476291
     0.500000000  0.000000000  0.264476291
     0.500000000  0.875000000  0.382238145
     0.250000000  0.000000000  0.382238145
     0.250000000  0.875000000  0.500000000
     0.500000000  0.000000000  0.500000000
     0.499775599  0.874081244  0.614250967
     0.249714501  0.999964152  0.621856853
     0.250920123  0.875102175  0.742873818
     0.499952588  0.000053886  0.729506785
     0.250000000  0.125000000  0.264476291
     0.500000000  0.250000000  0.264476291
     0.500000000  0.125000000  0.382238145
     0.250000000  0.250000000  0.382238145
     0.250000000  0.125000000  0.500000000
     0.500000000  0.250000000  0.500000000
     0.499467447  0.126203817  0.614476986
     0.250138925  0.250101698  0.621823766
     0.250684884  0.124946141  0.742856355
     0.500088102  0.249689654  0.729805004
     0.250000000  0.375000000  0.264476291
     0.500000000  0.500000000  0.264476291
     0.500000000  0.375000000  0.382238145
     0.250000000  0.500000000  0.382238145
     0.250000000  0.375000000  0.500000000
     0.500000000  0.500000000  0.500000000
     0.500389431  0.377402500  0.617176593
     0.250570283  0.500043604  0.621855121
     0.250583092  0.374953803  0.742790655
     0.501721970  0.499718582  0.735423175
     0.750000000  0.750000000  0.218419601
     0.750000000  0.750000000  0.310532981
     0.097775060  0.625000000  0.264476291
     0.902224940  0.625000000  0.264476291
     0.000000000  0.750000000  0.336181456
     0.000000000  0.750000000  0.428294835
     0.847775060  0.625000000  0.382238145
     0.152224940  0.625000000  0.382238145
     0.750000000  0.750000000  0.453943310
     0.750000000  0.750000000  0.546056690
     0.097775060  0.625000000  0.500000000
     0.902224940  0.625000000  0.500000000
     0.000286468  0.750147465  0.572228825
     0.999420196  0.749853624  0.664703418
     0.850354509  0.625289269  0.617753230
     0.150064454  0.625164080  0.618455535
     0.753723307  0.750830028  0.689582880
     0.748454109  0.748898913  0.782163100
     0.094135020  0.625144340  0.742206655
     0.906666011  0.624260486  0.743233641
     0.750000000  0.000000000  0.218419601
     0.750000000  0.000000000  0.310532981
     0.097775060  0.875000000  0.264476291
     0.902224940  0.875000000  0.264476291
     0.000000000  0.000000000  0.336181456
     0.000000000  0.000000000  0.428294835
     0.847775060  0.875000000  0.382238145
     0.152224940  0.875000000  0.382238145
     0.750000000  0.000000000  0.453943310
     0.750000000  0.000000000  0.546056690
     0.097775060  0.875000000  0.500000000
     0.902224940  0.875000000  0.500000000
     0.000208387  0.000007561  0.572259588
     0.999762456  0.999931657  0.664697224
     0.850068432  0.875509155  0.618094503
     0.149945299  0.874833866  0.618556688
     0.750445427  0.999915029  0.689965414
     0.750151322  0.999821652  0.782562458
     0.093878199  0.874549737  0.741978917
     0.906568285  0.874977646  0.742708821
     0.750000000  0.250000000  0.218419601
     0.750000000  0.250000000  0.310532981
     0.097775060  0.125000000  0.264476291
     0.902224940  0.125000000  0.264476291
     0.000000000  0.250000000  0.336181456
     0.000000000  0.250000000  0.428294835
     0.847775060  0.125000000  0.382238145
     0.152224940  0.125000000  0.382238145
     0.750000000  0.250000000  0.453943310
     0.750000000  0.250000000  0.546056690
     0.097775060  0.125000000  0.500000000
     0.902224940  0.125000000  0.500000000
     0.000235299  0.249803816  0.572242138
     0.999548661  0.250132273  0.664725026
     0.849985767  0.124672464  0.618235725
     0.149865806  0.125030632  0.618500129
     0.752638981  0.249607056  0.689692238
     0.749534256  0.250697267  0.782182389
     0.093740850  0.125247370  0.742120113
     0.906505222  0.124905242  0.742460773
     0.750000000  0.500000000  0.218419601
     0.750000000  0.500000000  0.310532981
     0.097775060  0.375000000  0.264476291
     0.902224940  0.375000000  0.264476291
     0.000000000  0.500000000  0.336181456
     0.000000000  0.500000000  0.428294835
     0.847775060  0.375000000  0.382238145
     0.152224940  0.375000000  0.382238145
     0.750000000  0.500000000  0.453943310
     0.750000000  0.500000000  0.546056690
     0.097775060  0.375000000  0.500000000
     0.902224940  0.375000000  0.500000000
     0.000330881  0.499982195  0.572206802
     0.999707511  0.500001788  0.664617321
     0.850314324  0.374577942  0.617798926
     0.150019153  0.374984226  0.618432675
     0.755468652  0.499815919  0.689446479
     0.739439664  0.500072402  0.782131983
     0.094060643  0.374966931  0.742200350
     0.906698875  0.375705971  0.743251214
     0.250000000  0.750000000  0.218419601
     0.250000000  0.750000000  0.310532981
     0.597775060  0.625000000  0.264476291
     0.402224940  0.625000000  0.264476291
     0.500000000  0.750000000  0.336181456
     0.500000000  0.750000000  0.428294835
     0.347775060  0.625000000  0.382238145
     0.652224940  0.625000000  0.382238145
     0.250000000  0.750000000  0.453943310
     0.250000000  0.750000000  0.546056690
     0.597775060  0.625000000  0.500000000
     0.402224940  0.625000000  0.500000000
     0.500445717  0.748531367  0.572067355
     0.497759303  0.751674014  0.663491882
     0.349451130  0.624921680  0.618314019
     0.650915227  0.625144157  0.619000306
     0.250882008  0.749842849  0.689803863
     0.250814617  0.749812247  0.782480165
     0.596784039  0.629754355  0.736039235
     0.407748639  0.625770419  0.742668113
     0.250000000  0.000000000  0.218419601
     0.250000000  0.000000000  0.310532981
     0.597775060  0.875000000  0.264476291
     0.402224940  0.875000000  0.264476291
     0.500000000  0.000000000  0.336181456
     0.500000000  0.000000000  0.428294835
     0.347775060  0.875000000  0.382238145
     0.652224940  0.875000000  0.382238145
     0.250000000  0.000000000  0.453943310
     0.250000000  0.000000000  0.546056690
     0.597775060  0.875000000  0.500000000
     0.402224940  0.875000000  0.500000000
     0.500157793  0.000261705  0.571660672
     0.499989761  0.999959461  0.663695285
     0.349432272  0.875331807  0.617872009
     0.650485601  0.874786161  0.618362210
     0.249801608  0.999965032  0.689795084
     0.249570436  0.999980511  0.782467829
     0.594056141  0.874982624  0.741527594
     0.406386021  0.876090944  0.741827392
     0.250000000  0.250000000  0.218419601
     0.250000000  0.250000000  0.310532981
     0.597775060  0.125000000  0.264476291
     0.402224940  0.125000000  0.264476291
     0.500000000  0.250000000  0.336181456
     0.500000000  0.250000000  0.428294835
     0.347775060  0.125000000  0.382238145
     0.652224940  0.125000000  0.382238145
     0.250000000  0.250000000  0.453943310
     0.250000000  0.250000000  0.546056690
     0.597775060  0.125000000  0.500000000
     0.402224940  0.125000000  0.500000000
     0.500302134  0.251554150  0.572207125
     0.498830441  0.248540761  0.663911323
     0.349461147  0.124866844  0.618055349
     0.650513191  0.125161764  0.618345755
     0.249964811  0.249963359  0.689797422
     0.250555234  0.250157692  0.782405845
     0.594092680  0.124807681  0.741623906
     0.406299128  0.124228558  0.741746443
     0.250000000  0.500000000  0.218419601
     0.250000000  0.500000000  0.310532981
     0.597775060  0.375000000  0.264476291
     0.402224940  0.375000000  0.264476291
     0.500000000  0.500000000  0.336181456
     0.500000000  0.500000000  0.428294835
     0.347775060  0.375000000  0.382238145
     0.652224940  0.375000000  0.382238145
     0.250000000  0.500000000  0.453943310
     0.250000000  0.500000000  0.546056690
     0.597775060  0.375000000  0.500000000
     0.402224940  0.375000000  0.500000000
     0.500349941  0.499872376  0.572509957
     0.499480611  0.500216124  0.665397074
     0.349441872  0.374960505  0.618501927
     0.650871503  0.375022224  0.618968235
     0.249642722  0.500251342  0.689852760
     0.251947653  0.500221509  0.782431114
     0.596237957  0.371473704  0.737729363
     0.406841317  0.374137162  0.741352180

  ion indices of the primitive-cell ions
   primitive index   ion index
                 1           1
                 2           2
                 3           3
                 4           4
                 5           5
                 6           6
                 7           7
                 8           8
                 9           9
                10          10
                11          11
                12          12
                13          13
                14          14
                15          15
                16          16
                17          17
                18          18
                19          19
                20          20
                21          21
                22          22
                23          23
                24          24
                25          25
                26          26
                27          27
                28          28
                29          29
                30          30
                31          31
                32          32
                33          33
                34          34
                35          35
                36          36
                37          37
                38          38
                39          39
                40          40
                41          41
                42          42
                43          43
                44          44
                45          45
                46          46
                47          47
                48          48
                49          49
                50          50
                51          51
                52          52
                53          53
                54          54
                55          55
                56          56
                57          57
                58          58
                59          59
                60          60
                61          61
                62          62
                63          63
                64          64
                65          65
                66          66
                67          67
                68          68
                69          69
                70          70
                71          71
                72          72
                73          73
                74          74
                75          75
                76          76
                77          77
                78          78
                79          79
                80          80
                81          81
                82          82
                83          83
                84          84
                85          85
                86          86
                87          87
                88          88
                89          89
                90          90
                91          91
                92          92
                93          93
                94          94
                95          95
                96          96
                97          97
                98          98
                99          99
               100         100
               101         101
               102         102
               103         103
               104         104
               105         105
               106         106
               107         107
               108         108
               109         109
               110         110
               111         111
               112         112
               113         113
               114         114
               115         115
               116         116
               117         117
               118         118
               119         119
               120         120
               121         121
               122         122
               123         123
               124         124
               125         125
               126         126
               127         127
               128         128
               129         129
               130         130
               131         131
               132         132
               133         133
               134         134
               135         135
               136         136
               137         137
               138         138
               139         139
               140         140
               141         141
               142         142
               143         143
               144         144
               145         145
               146         146
               147         147
               148         148
               149         149
               150         150
               151         151
               152         152
               153         153
               154         154
               155         155
               156         156
               157         157
               158         158
               159         159
               160         160
               161         161
               162         162
               163         163
               164         164
               165         165
               166         166
               167         167
               168         168
               169         169
               170         170
               171         171
               172         172
               173         173
               174         174
               175         175
               176         176
               177         177
               178         178
               179         179
               180         180
               181         181
               182         182
               183         183
               184         184
               185         185
               186         186
               187         187
               188         188
               189         189
               190         190
               191         191
               192         192
               193         193
               194         194
               195         195
               196         196
               197         197
               198         198
               199         199
               200         200
               201         201
               202         202
               203         203
               204         204
               205         205
               206         206
               207         207
               208         208
               209         209
               210         210
               211         211
               212         212
               213         213
               214         214
               215         215
               216         216
               217         217
               218         218
               219         219
               220         220
               221         221
               222         222
               223         223
               224         224
               225         225
               226         226
               227         227
               228         228
               229         229
               230         230
               231         231
               232         232
               233         233
               234         234
               235         235
               236         236
               237         237
               238         238
               239         239
               240         240
               241         241
               242         242
               243         243
               244         244
               245         245
               246         246

----------------------------------------------------------------------------------------

 
 
 KPOINTS: pymatgen v2020.8.13 with grid density = 

Automatic generation of k-mesh.
 Grid dimensions read from file:
 generate k-points for:    2    2    1

 Generating k-lattice:

  Cartesian coordinates                     Fractional coordinates (reciprocal lattice)
     0.038640767  0.000000000  0.000000000     0.500000000  0.000000000  0.000000000
     0.000000000  0.042514139  0.000000000     0.000000000  0.500000000  0.000000000
     0.000000000  0.000000000  0.036403267     0.000000000  0.000000000  1.000000000

  Length of vectors
     0.038640767  0.042514139  0.036403267

  Shift w.r.t. Gamma in fractional coordinates (k-lattice)
     0.000000000  0.000000000  0.000000000

 
 Subroutine IBZKPT returns following result:
 ===========================================
 
 Found      4 irreducible k-points:
 
 Following reciprocal coordinates:
            Coordinates               Weight
  0.000000  0.000000  0.000000      1.000000
  0.500000  0.000000  0.000000      1.000000
  0.000000  0.500000  0.000000      1.000000
  0.500000  0.500000  0.000000      1.000000
 
 Following cartesian coordinates:
            Coordinates               Weight
  0.000000  0.000000  0.000000      1.000000
  0.038641  0.000000  0.000000      1.000000
  0.000000  0.042514  0.000000      1.000000
  0.038641  0.042514  0.000000      1.000000
 
 
 Subroutine IBZKPT_HF returns following result:
 ==============================================
 
 Found      4 k-points in 1st BZ
 the following      4 k-points will be used (e.g. in the exchange kernel)
 Following reciprocal coordinates:   # in IRBZ
  0.000000  0.000000  0.000000    0.25000000   1 t-inv F
  0.500000  0.000000  0.000000    0.25000000   2 t-inv F
  0.000000  0.500000  0.000000    0.25000000   3 t-inv F
  0.500000  0.500000  0.000000    0.25000000   4 t-inv F


--------------------------------------------------------------------------------------------------------




 Dimension of arrays:
   k-points           NKPTS =      4   k-points in BZ     NKDIM =      4   number of bands    NBANDS=    800
   number of dos      NEDOS =    301   number of ions     NIONS =    246
   non local maximal  LDIM  =      5   non local SUM 2l+1 LMDIM =     15
   total plane-waves  NPLWV = 806400
   max r-space proj   IRMAX =      1   max aug-charges    IRDMAX=  13520
   dimension x,y,z NGX =    72 NGY =   70 NGZ =  160
   dimension x,y,z NGXF=   144 NGYF=  140 NGZF=  320
   support grid    NGXF=   144 NGYF=  140 NGZF=  320
   ions per type =               1   1   4  80 160
   NGX,Y,Z   is equivalent  to a cutoff of   9.25,  9.89,  9.68 a.u.
   NGXF,Y,Z  is equivalent  to a cutoff of  18.50, 19.79, 19.37 a.u.

 SYSTEM =  TiO2                                    
 POSCAR =   C  O  H Ti  O                          

--------------------------------------------------------------------------------------------------------


  energy-cutoff  :      520.00
  volume of cell :     4180.43
      direct lattice vectors                 reciprocal lattice vectors
    12.939701814  0.000000000  0.000000000     0.077281534  0.000000000  0.000000000
     0.000000000 11.760793336  0.000000000     0.000000000  0.085028278  0.000000000
     0.000000000  0.000000000 27.470062065     0.000000000  0.000000000  0.036403267

  length of vectors
    12.939701814 11.760793336 27.470062065     0.077281534  0.085028278  0.036403267


 
 k-points in units of 2pi/SCALE and weight: pymatgen v2020.8.13 with grid density = 
   0.00000000  0.00000000  0.00000000       0.250
   0.03864077  0.00000000  0.00000000       0.250
   0.00000000  0.04251414  0.00000000       0.250
   0.03864077  0.04251414  0.00000000       0.250
 
 k-points in reciprocal lattice and weights: pymatgen v2020.8.13 with grid density = 
   0.00000000  0.00000000  0.00000000       0.250
   0.50000000  0.00000000  0.00000000       0.250
   0.00000000  0.50000000  0.00000000       0.250
   0.50000000  0.50000000  0.00000000       0.250
 
 position of ions in fractional coordinates (direct lattice) 
   0.50871424  0.58769629  0.84414984
   0.53911267  0.50008853  0.81097662
   0.42513015  0.59578996  0.84218059
   0.61548627  0.49489670  0.80972114
   0.53179890  0.56357505  0.88086924
   0.54579273  0.66827711  0.83464991
   0.75000000  0.62500000  0.26447629
   0.00000000  0.75000000  0.26447629
   0.00000000  0.62500000  0.38223815
   0.75000000  0.75000000  0.38223815
   0.75000000  0.62500000  0.50000000
   0.00000000  0.75000000  0.50000000
   0.00065399  0.62503826  0.61545540
   0.75053282  0.75016983  0.62138711
   0.75105450  0.62606916  0.74144675
   0.00002641  0.75019140  0.73074294
   0.75000000  0.87500000  0.26447629
   0.00000000  0.00000000  0.26447629
   0.00000000  0.87500000  0.38223815
   0.75000000  0.00000000  0.38223815
   0.75000000  0.87500000  0.50000000
   0.00000000  0.00000000  0.50000000
   0.00013167  0.87501575  0.61553766
   0.74969385  0.00003049  0.62179565
   0.74981520  0.87515588  0.74278607
   0.00022707  0.99991648  0.73073067
   0.75000000  0.12500000  0.26447629
   0.00000000  0.25000000  0.26447629
   0.00000000  0.12500000  0.38223815
   0.75000000  0.25000000  0.38223815
   0.75000000  0.12500000  0.50000000
   0.00000000  0.25000000  0.50000000
   0.99998273  0.12492859  0.61555469
   0.75006228  0.24983582  0.62140473
   0.74971379  0.12451576  0.74282299
   0.00012451  0.24972381  0.73075558
   0.75000000  0.37500000  0.26447629
   0.00000000  0.50000000  0.26447629
   0.00000000  0.37500000  0.38223815
   0.75000000  0.50000000  0.38223815
   0.75000000  0.37500000  0.50000000
   0.00000000  0.50000000  0.50000000
   0.00044674  0.37492872  0.61545382
   0.75122153  0.49995243  0.62158149
   0.75144540  0.37354085  0.74165865
   0.00097154  0.50003013  0.73064982
   0.25000000  0.62500000  0.26447629
   0.50000000  0.75000000  0.26447629
   0.50000000  0.62500000  0.38223815
   0.25000000  0.75000000  0.38223815
   0.25000000  0.62500000  0.50000000
   0.50000000  0.75000000  0.50000000
   0.50074487  0.62257286  0.61697819
   0.25060354  0.74992150  0.62172117
   0.25053085  0.62518264  0.74265096
   0.50025164  0.75041902  0.72926381
   0.25000000  0.87500000  0.26447629
   0.50000000  0.00000000  0.26447629
   0.50000000  0.87500000  0.38223815
   0.25000000  0.00000000  0.38223815
   0.25000000  0.87500000  0.50000000
   0.50000000  0.00000000  0.50000000
   0.49977560  0.87408124  0.61425097
   0.24971450  0.99996415  0.62185685
   0.25092012  0.87510217  0.74287382
   0.49995259  0.00005389  0.72950679
   0.25000000  0.12500000  0.26447629
   0.50000000  0.25000000  0.26447629
   0.50000000  0.12500000  0.38223815
   0.25000000  0.25000000  0.38223815
   0.25000000  0.12500000  0.50000000
   0.50000000  0.25000000  0.50000000
   0.49946745  0.12620382  0.61447699
   0.25013893  0.25010170  0.62182377
   0.25068488  0.12494614  0.74285635
   0.50008810  0.24968965  0.72980500
   0.25000000  0.37500000  0.26447629
   0.50000000  0.50000000  0.26447629
   0.50000000  0.37500000  0.38223815
   0.25000000  0.50000000  0.38223815
   0.25000000  0.37500000  0.50000000
   0.50000000  0.50000000  0.50000000
   0.50038943  0.37740250  0.61717659
   0.25057028  0.50004360  0.62185512
   0.25058309  0.37495380  0.74279065
   0.50172197  0.49971858  0.73542317
   0.75000000  0.75000000  0.21841960
   0.75000000  0.75000000  0.31053298
   0.09777506  0.62500000  0.26447629
   0.90222494  0.62500000  0.26447629
   0.00000000  0.75000000  0.33618146
   0.00000000  0.75000000  0.42829484
   0.84777506  0.62500000  0.38223815
   0.15222494  0.62500000  0.38223815
   0.75000000  0.75000000  0.45394331
   0.75000000  0.75000000  0.54605669
   0.09777506  0.62500000  0.50000000
   0.90222494  0.62500000  0.50000000
   0.00028647  0.75014747  0.57222882
   0.99942020  0.74985362  0.66470342
   0.85035451  0.62528927  0.61775323
   0.15006445  0.62516408  0.61845553
   0.75372331  0.75083003  0.68958288
   0.74845411  0.74889891  0.78216310
   0.09413502  0.62514434  0.74220665
   0.90666601  0.62426049  0.74323364
   0.75000000  0.00000000  0.21841960
   0.75000000  0.00000000  0.31053298
   0.09777506  0.87500000  0.26447629
   0.90222494  0.87500000  0.26447629
   0.00000000  0.00000000  0.33618146
   0.00000000  0.00000000  0.42829484
   0.84777506  0.87500000  0.38223815
   0.15222494  0.87500000  0.38223815
   0.75000000  0.00000000  0.45394331
   0.75000000  0.00000000  0.54605669
   0.09777506  0.87500000  0.50000000
   0.90222494  0.87500000  0.50000000
   0.00020839  0.00000756  0.57225959
   0.99976246  0.99993166  0.66469722
   0.85006843  0.87550916  0.61809450
   0.14994530  0.87483387  0.61855669
   0.75044543  0.99991503  0.68996541
   0.75015132  0.99982165  0.78256246
   0.09387820  0.87454974  0.74197892
   0.90656828  0.87497765  0.74270882
   0.75000000  0.25000000  0.21841960
   0.75000000  0.25000000  0.31053298
   0.09777506  0.12500000  0.26447629
   0.90222494  0.12500000  0.26447629
   0.00000000  0.25000000  0.33618146
   0.00000000  0.25000000  0.42829484
   0.84777506  0.12500000  0.38223815
   0.15222494  0.12500000  0.38223815
   0.75000000  0.25000000  0.45394331
   0.75000000  0.25000000  0.54605669
   0.09777506  0.12500000  0.50000000
   0.90222494  0.12500000  0.50000000
   0.00023530  0.24980382  0.57224214
   0.99954866  0.25013227  0.66472503
   0.84998577  0.12467246  0.61823573
   0.14986581  0.12503063  0.61850013
   0.75263898  0.24960706  0.68969224
   0.74953426  0.25069727  0.78218239
   0.09374085  0.12524737  0.74212011
   0.90650522  0.12490524  0.74246077
   0.75000000  0.50000000  0.21841960
   0.75000000  0.50000000  0.31053298
   0.09777506  0.37500000  0.26447629
   0.90222494  0.37500000  0.26447629
   0.00000000  0.50000000  0.33618146
   0.00000000  0.50000000  0.42829484
   0.84777506  0.37500000  0.38223815
   0.15222494  0.37500000  0.38223815
   0.75000000  0.50000000  0.45394331
   0.75000000  0.50000000  0.54605669
   0.09777506  0.37500000  0.50000000
   0.90222494  0.37500000  0.50000000
   0.00033088  0.49998220  0.57220680
   0.99970751  0.50000179  0.66461732
   0.85031432  0.37457794  0.61779893
   0.15001915  0.37498423  0.61843267
   0.75546865  0.49981592  0.68944648
   0.73943966  0.50007240  0.78213198
   0.09406064  0.37496693  0.74220035
   0.90669887  0.37570597  0.74325121
   0.25000000  0.75000000  0.21841960
   0.25000000  0.75000000  0.31053298
   0.59777506  0.62500000  0.26447629
   0.40222494  0.62500000  0.26447629
   0.50000000  0.75000000  0.33618146
   0.50000000  0.75000000  0.42829484
   0.34777506  0.62500000  0.38223815
   0.65222494  0.62500000  0.38223815
   0.25000000  0.75000000  0.45394331
   0.25000000  0.75000000  0.54605669
   0.59777506  0.62500000  0.50000000
   0.40222494  0.62500000  0.50000000
   0.50044572  0.74853137  0.57206736
   0.49775930  0.75167401  0.66349188
   0.34945113  0.62492168  0.61831402
   0.65091523  0.62514416  0.61900031
   0.25088201  0.74984285  0.68980386
   0.25081462  0.74981225  0.78248017
   0.59678404  0.62975435  0.73603924
   0.40774864  0.62577042  0.74266811
   0.25000000  0.00000000  0.21841960
   0.25000000  0.00000000  0.31053298
   0.59777506  0.87500000  0.26447629
   0.40222494  0.87500000  0.26447629
   0.50000000  0.00000000  0.33618146
   0.50000000  0.00000000  0.42829484
   0.34777506  0.87500000  0.38223815
   0.65222494  0.87500000  0.38223815
   0.25000000  0.00000000  0.45394331
   0.25000000  0.00000000  0.54605669
   0.59777506  0.87500000  0.50000000
   0.40222494  0.87500000  0.50000000
   0.50015779  0.00026171  0.57166067
   0.49998976  0.99995946  0.66369529
   0.34943227  0.87533181  0.61787201
   0.65048560  0.87478616  0.61836221
   0.24980161  0.99996503  0.68979508
   0.24957044  0.99998051  0.78246783
   0.59405614  0.87498262  0.74152759
   0.40638602  0.87609094  0.74182739
   0.25000000  0.25000000  0.21841960
   0.25000000  0.25000000  0.31053298
   0.59777506  0.12500000  0.26447629
   0.40222494  0.12500000  0.26447629
   0.50000000  0.25000000  0.33618146
   0.50000000  0.25000000  0.42829484
   0.34777506  0.12500000  0.38223815
   0.65222494  0.12500000  0.38223815
   0.25000000  0.25000000  0.45394331
   0.25000000  0.25000000  0.54605669
   0.59777506  0.12500000  0.50000000
   0.40222494  0.12500000  0.50000000
   0.50030213  0.25155415  0.57220713
   0.49883044  0.24854076  0.66391132
   0.34946115  0.12486684  0.61805535
   0.65051319  0.12516176  0.61834575
   0.24996481  0.24996336  0.68979742
   0.25055523  0.25015769  0.78240585
   0.59409268  0.12480768  0.74162391
   0.40629913  0.12422856  0.74174644
   0.25000000  0.50000000  0.21841960
   0.25000000  0.50000000  0.31053298
   0.59777506  0.37500000  0.26447629
   0.40222494  0.37500000  0.26447629
   0.50000000  0.50000000  0.33618146
   0.50000000  0.50000000  0.42829484
   0.34777506  0.37500000  0.38223815
   0.65222494  0.37500000  0.38223815
   0.25000000  0.50000000  0.45394331
   0.25000000  0.50000000  0.54605669
   0.59777506  0.37500000  0.50000000
   0.40222494  0.37500000  0.50000000
   0.50034994  0.49987238  0.57250996
   0.49948061  0.50021612  0.66539707
   0.34944187  0.37496051  0.61850193
   0.65087150  0.37502222  0.61896823
   0.24964272  0.50025134  0.68985276
   0.25194765  0.50022151  0.78243111
   0.59623796  0.37147370  0.73772936
   0.40684132  0.37413716  0.74135218
 
 position of ions in cartesian coordinates  (Angst):
   6.58261052  6.91177461 23.18884844
   6.97595714  5.88143785 22.27757816
   5.50105743  7.00696256 23.13475309
   7.96420880  5.82037781 22.24308985
   6.88131919  6.62808971 24.19753273
   7.06239516  7.85946899 22.92788488
   9.70477636  7.35049584  7.26518013
   0.00000000  8.82059500  7.26518013
   0.00000000  7.35049584 10.50010558
   9.70477636  8.82059500 10.50010558
   9.70477636  7.35049584 13.73503103
   0.00000000  8.82059500 13.73503103
   0.00846242  7.35094577 16.90659795
   9.71167096  8.82259228 17.06954261
   9.71842131  7.36307006 20.36758836
   0.00034175  8.82284606 20.07355393
   9.70477636 10.29069417  7.26518013
   0.00000000  0.00000000  7.26518013
   0.00000000 10.29069417 10.50010558
   9.70477636  0.00000000 10.50010558
   9.70477636 10.29069417 13.73503103
   0.00000000  0.00000000 13.73503103
   0.00170376 10.29087943 16.90885775
   9.70081483  0.00035855 17.08076508
   9.70238511 10.29252746 20.40437943
   0.00293826 11.75981108 20.07321695
   9.70477636  1.47009917  7.26518013
   0.00000000  2.94019833  7.26518013
   0.00000000  1.47009917 10.50010558
   9.70477636  2.94019833 10.50010558
   9.70477636  1.47009917 13.73503103
   0.00000000  2.94019833 13.73503103
  12.93947839  1.46925928 16.90932563
   9.70558224  2.93826745 17.07002637
   9.70107286  1.46440414 20.40539358
   0.00161110  2.93695016 20.07390101
   9.70477636  4.41029750  7.26518013
   0.00000000  5.88039667  7.26518013
   0.00000000  4.41029750 10.50010558
   9.70477636  5.88039667 10.50010558
   9.70477636  4.41029750 13.73503103
   0.00000000  5.88039667 13.73503103
   0.00578065  4.40945923 16.90655474
   9.72058264  5.87983719 17.07488197
   9.72347941  4.39313674 20.37340902
   0.01257139  5.88075104 20.07099597
   3.23492545  7.35049584  7.26518013
   6.46985091  8.82059500  7.26518013
   6.46985091  7.35049584 10.50010558
   3.23492545  8.82059500 10.50010558
   3.23492545  7.35049584 13.73503103
   6.46985091  8.82059500 13.73503103
   6.47948929  7.32195070 16.94842919
   3.24273514  8.81967175 17.07871916
   3.24179448  7.35264379 20.40066795
   6.47310701  8.82552305 20.03292221
   3.23492545 10.29069417  7.26518013
   6.46985091  0.00000000  7.26518013
[...]
      9.70478      5.88040     10.50011        -0.008615      0.000175     -0.870086
      9.70478      4.41030     13.73503        -0.048339      0.020613      0.610505
      0.00000      5.88040     13.73503         0.018964     -0.000717     -0.785702
      0.00580      4.40951     16.90657         0.000315      0.000536      0.000255
      9.72054      5.87989     17.07509        -0.002656      0.000240      0.000738
      9.72352      4.39317     20.37359        -0.002017     -0.002576     -0.002539
      0.01268      5.88075     20.07104         0.002831      0.000284      0.002181
      3.23493      7.35050      7.26518         0.002175      0.000223     -3.959929
      6.46985      8.82060      7.26518        -0.001906      0.001356      3.137319
      6.46985      7.35050     10.50011        -0.006672      0.011847      0.608214
      3.23493      8.82060     10.50011         0.008798      0.000689     -0.850464
      3.23493      7.35050     13.73503         0.045386     -0.014826      0.672015
      6.46985      8.82060     13.73503        -0.012842     -0.057414     -0.627411
      6.47943      7.32179     16.94836        -0.000284      0.001209     -0.000995
      3.24271      8.81960     17.07884         0.000893      0.000820     -0.000033
      3.24192      7.35260     20.40086         0.003755      0.003095      0.000970
      6.47320      8.82606     20.03292        -0.001095     -0.004078      0.000831
      3.23493     10.29069      7.26518         0.002461      0.001464     -3.960710
      6.46985      0.00000      7.26518        -0.001832      0.000590      3.136095
      6.46985     10.29069     10.50011        -0.006344      0.001033      0.611403
      3.23493      0.00000     10.50011         0.009087      0.000163     -0.849887
      3.23493     10.29069     13.73503         0.028686      0.014608      0.671907
      6.46985      0.00000     13.73503        -0.010497      0.005019     -0.867946
      6.46701     10.28026     16.87388         0.000737     -0.003962      0.002247
      3.23146     11.76037     17.08238         0.003192      0.000411     -0.000941
      3.24662     10.29182     20.40669        -0.000999      0.003206      0.001845
      6.46950      0.00063     20.04002         0.000601      0.000063      0.001110
      3.23493      1.47010      7.26518         0.002516     -0.000233     -3.961163
      6.46985      2.94020      7.26518        -0.001917     -0.001361      3.135735
      6.46985      1.47010     10.50011        -0.006583     -0.003875      0.609775
      3.23493      2.94020     10.50011         0.008437     -0.000676     -0.848244
      3.23493      1.47010     13.73503         0.029179     -0.000945      0.681579
      6.46985      2.94020     13.73503        -0.014319      0.055947     -0.604622
      6.46303      1.48384     16.88004         0.001183      0.004070      0.001739
      3.23668      2.94150     17.08160         0.001145     -0.000430     -0.000499
      3.24366      1.46958     20.40623        -0.000219     -0.002293      0.002546
      6.47102      2.93603     20.04775        -0.000585      0.004043     -0.000635
      3.23493      4.41030      7.26518         0.002199     -0.001418     -3.960360
      6.46985      5.88040      7.26518        -0.001940     -0.000547      3.136971
      6.46985      4.41030     10.50011        -0.006911     -0.008938      0.606485
      3.23493      5.88040     10.50011         0.008111     -0.000198     -0.848201
      3.23493      4.41030     13.73503         0.045305      0.001073      0.680936
      6.46985      5.88040     13.73503        -0.017345     -0.003112     -0.660356
      6.47484      4.43874     16.95376         0.000207     -0.001623     -0.001223
      3.24216      5.88094     17.08262        -0.000605      0.000077      0.001421
      3.24265      4.40989     20.40463         0.004433     -0.002204     -0.000130
      6.49228      5.87708     20.20271         0.000341      0.000121      0.001438
      9.70478      8.82060      6.00000         0.000011     -0.000844      2.226715
      9.70478      8.82060      8.53036         0.001077     -0.000529      2.017074
      1.26518      7.35050      7.26518        -2.150098     -0.000091     -0.831990
     11.67452      7.35050      7.26518         2.147319     -0.000110     -0.831959
      0.00000      8.82060      9.23493        -0.001008     -0.000070     -1.521811
      0.00000      8.82060     11.76529        -0.001531      0.000148     -0.131884
     10.96996      7.35050     10.50011         0.479822     -0.000278      0.061916
      1.96975      7.35050     10.50011        -0.487152      0.000175      0.059314
      9.70478      8.82060     12.46985         0.005706     -0.003670     -0.048414
      9.70478      8.82060     15.00021         0.008962      0.001100      0.071017
      1.26518      7.35050     13.73503        -0.504147      0.002277      0.094731
     11.67452      7.35050     13.73503         0.478242      0.001611      0.104157
      0.00368      8.82231     15.71917        -0.000488      0.000156      0.000535
     12.93232      8.81871     18.25944         0.001157     -0.000268     -0.001316
     11.00342      7.35390     16.96964        -0.000361      0.000220     -0.000195
      1.94166      7.35250     16.98892         0.001419      0.000650     -0.000100
      9.75282      8.83045     18.94296        -0.000789      0.000510     -0.001371
      9.68484      8.80774     21.48593         0.001034     -0.001212      0.002078
      1.21798      7.35219     20.38837         0.002295      0.001255     -0.000652
     11.73218      7.34185     20.41663        -0.001839      0.001439      0.000243
      9.70478      0.00000      6.00000         0.000188     -0.000367      2.228252
      9.70478      0.00000      8.53036         0.001170     -0.000154      2.016810
      1.26518     10.29069      7.26518        -2.150266     -0.000304     -0.831755
     11.67452     10.29069      7.26518         2.147569     -0.000314     -0.831712
      0.00000      0.00000      9.23493        -0.000991     -0.000051     -1.521579
      0.00000      0.00000     11.76529        -0.001856     -0.000068     -0.130897
     10.96996     10.29069     10.50011         0.480033     -0.000326      0.061877
      1.96975     10.29069     10.50011        -0.487144     -0.000278      0.059414
      9.70478      0.00000     12.46985         0.005875      0.000237     -0.051120
      9.70478      0.00000     15.00021        -0.005310      0.002029      0.052447
      1.26518     10.29069     13.73503        -0.502074      0.001127      0.092765
     11.67452     10.29069     13.73503         0.479043     -0.001995      0.101683
      0.00289      0.00014     15.71985         0.002032      0.000437      0.001650
     12.93664     11.76006     18.25911         0.000140      0.000717     -0.000539
     10.99973     10.29662     16.97901        -0.000782      0.000339     -0.000422
      1.94018     10.28863     16.99163         0.001781     -0.000326     -0.000827
      9.71045     11.75981     18.95363        -0.000153      0.000209     -0.003229
      9.70666     11.75874     21.49696        -0.000454      0.000623      0.001212
      1.21479     10.28545     20.38227         0.000669      0.002284      0.000130
     11.73095     10.29035     20.40236         0.000936      0.001457      0.001437
      9.70478      2.94020      6.00000         0.000139      0.000840      2.227872
      9.70478      2.94020      8.53036         0.001054      0.000535      2.017425
      1.26518      1.47010      7.26518        -2.150388      0.000071     -0.831634
     11.67452      1.47010      7.26518         2.147660      0.000094     -0.831561
      0.00000      2.94020      9.23493        -0.001016      0.000077     -1.521605
      0.00000      2.94020     11.76529        -0.001855     -0.000218     -0.131250
     10.96996      1.47010     10.50011         0.479963      0.000389      0.061884
      1.96975      1.47010     10.50011        -0.487283     -0.000080      0.059300
      9.70478      2.94020     12.46985         0.005900      0.003795     -0.048071
      9.70478      2.94020     15.00021         0.004930      0.000583      0.080289
      1.26518      1.47010     13.73503        -0.505099     -0.001159      0.091632
     11.67452      1.47010     13.73503         0.478268      0.001622      0.101745
      0.00303      2.93797     15.71952        -0.000465      0.000717      0.000364
     12.93397      2.94198     18.26004         0.001089      0.001223     -0.001519
     10.99867      1.46631     16.98288        -0.000734     -0.000092     -0.000731
      1.93916      1.47062     16.99006         0.002008      0.000891     -0.001006
      9.73887      2.93549     18.94595         0.000113     -0.000272     -0.001539
      9.69876      2.94838     21.48644        -0.000059      0.002045      0.002119
      1.21303      1.47304     20.38610         0.001406     -0.001391     -0.000227
     11.73013      1.46917     20.39552         0.000909     -0.000193      0.001253
      9.70478      5.88040      6.00000        -0.000027      0.000376      2.226261
      9.70478      5.88040      8.53036         0.001042      0.000163      2.017131
      1.26518      4.41030      7.26518        -2.150221      0.000330     -0.831862
     11.67452      4.41030      7.26518         2.147410      0.000338     -0.831814
      0.00000      5.88040      9.23493        -0.001022      0.000047     -1.521871
      0.00000      5.88040     11.76529        -0.001616      0.000025     -0.132437
     10.96996      4.41030     10.50011         0.479744      0.000231      0.061924
      1.96975      4.41030     10.50011        -0.487309      0.000195      0.059198
      9.70478      5.88040     12.46985         0.007936     -0.000141     -0.047547
      9.70478      5.88040     15.00021         0.002753     -0.000559      0.059516
      1.26518      4.41030     13.73503        -0.507344     -0.002762      0.094583
     11.67452      4.41030     13.73503         0.477830     -0.001723      0.104523
      0.00438      5.88018     15.71871         0.001107      0.000208     -0.000116
     12.93595      5.88042     18.25727         0.000341      0.000139     -0.001618
     11.00288      4.40538     16.97088        -0.000373      0.000467     -0.000380
      1.94109      4.41005     16.98829         0.001553     -0.000239     -0.000129
      9.77546      5.87826     18.93927        -0.000087      0.000493      0.002598
      9.56822      5.88122     21.48527        -0.000330     -0.000281      0.004617
      1.21704      4.40997     20.38820         0.002695     -0.000304     -0.000533
     11.73260      4.41856     20.41710        -0.001922     -0.000976      0.000165
      3.23493      8.82060      6.00000        -0.000252     -0.000663      2.226344
      3.23493      8.82060      8.53036        -0.001279     -0.000382      2.012106
      7.73503      7.35050      7.26518        -2.144985     -0.000415     -0.833412
      5.20467      7.35050      7.26518         2.147335     -0.000393     -0.833593
      6.46985      8.82060      9.23493         0.000750     -0.001923     -1.537373
      6.46985      8.82060     11.76529         0.002540     -0.003639     -0.193194
      4.50011      7.35050     10.50011         0.473840     -0.000379      0.057726
      8.43960      7.35050     10.50011        -0.466623     -0.000887      0.060148
      3.23493      8.82060     12.46985        -0.005949      0.000835     -0.076911
      3.23493      8.82060     15.00021        -0.017863     -0.001555      0.054233
      7.73503      7.35050     13.73503        -0.427597     -0.032680      0.069046
      5.20467      7.35050     13.73503         0.463078     -0.031636      0.074515
      6.47546      8.80375     15.71446        -0.001717      0.001874      0.003191
      6.44110      8.84006     18.22629         0.002721     -0.002184     -0.003555
      4.52185      7.34944     16.98522        -0.000168     -0.000995      0.001099
      8.42268      7.35213     17.00397         0.000737     -0.000498     -0.000641
      3.24639      8.81893     18.94900         0.000463      0.001423     -0.000381
      3.24556      8.81850     21.49487         0.001421     -0.000187      0.000497
      7.72196      7.40659     20.21902         0.004659      0.002662      0.003188
      5.27640      7.35918     20.40100        -0.002393      0.000950     -0.000217
      3.23493      0.00000      6.00000        -0.000414     -0.000431      2.227740
      3.23493      0.00000      8.53036        -0.001331     -0.000248      2.011998
      7.73503     10.29069      7.26518        -2.145066     -0.000525     -0.833107
      5.20467     10.29069      7.26518         2.147332     -0.000517     -0.833241
      6.46985      0.00000      9.23493         0.000787      0.000384     -1.537522
      6.46985      0.00000     11.76529         0.001676      0.001042     -0.192508
      4.50011     10.29069     10.50011         0.471953     -0.000257      0.057659
      8.43960     10.29069     10.50011        -0.464998     -0.000256      0.059922
      3.23493      0.00000     12.46985        -0.004891     -0.002715     -0.079021
      3.23493      0.00000     15.00021        -0.032379      0.001390      0.033667
      7.73503     10.29069     13.73503        -0.429352      0.001106      0.087309
      5.20467     10.29069     13.73503         0.457579     -0.001858      0.093436
      6.47186      0.00305     15.70393        -0.000160     -0.000502     -0.001038
      6.46971     11.76034     18.23174         0.000377     -0.000025      0.005485
      4.52181     10.29465     16.97283        -0.002181      0.000291     -0.000385
      8.41688     10.28819     16.98625         0.002967      0.000650     -0.001388
      3.23267     11.76037     18.94879         0.002713      0.000151     -0.002157
      3.22968     11.76053     21.49466         0.003966      0.000640     -0.002073
      7.68692     10.29052     20.36963         0.003224      0.002146     -0.000600
      5.25861     10.30346     20.37777        -0.000512      0.001643     -0.002354
      3.23493      2.94020      6.00000        -0.000368      0.000661      2.227424
      3.23493      2.94020      8.53036        -0.001256      0.000390      2.011796
      7.73503      1.47010      7.26518        -2.145160      0.000337     -0.832878
      5.20467      1.47010      7.26518         2.147460      0.000314     -0.833004
      6.46985      2.94020      9.23493         0.000780      0.001950     -1.536091
      6.46985      2.94020     11.76529         0.002265      0.003922     -0.183102
      4.50011      1.47010     10.50011         0.472547      0.000046      0.057624
      8.43960      1.47010     10.50011        -0.465430      0.000462      0.060020
      3.23493      2.94020     12.46985        -0.006228     -0.000479     -0.081425
      3.23493      2.94020     15.00021        -0.018440      0.001678      0.051788
      7.73503      1.47010     13.73503        -0.430944      0.008530      0.085812
      5.20467      1.47010     13.73503         0.460368      0.008567      0.089970
      6.47369      2.95809     15.71828        -0.000706     -0.001565      0.002882
      6.45491      2.92318     18.23778         0.002185      0.001799     -0.004048
      4.52224      1.46852     16.97791        -0.002138     -0.000096     -0.000158
      8.41723      1.47200     16.98586         0.003428     -0.000420     -0.000873
      3.23453      2.93963     18.94880         0.000658     -0.001017     -0.000483
      3.24224      2.94207     21.49281         0.001864      0.000781     -0.000044
      7.68735      1.46787     20.37225         0.003292     -0.001387     -0.000710
      5.25750      1.46114     20.37556        -0.001035     -0.001400     -0.002118
      3.23493      5.88040      6.00000        -0.000195      0.000441      2.226005
      3.23493      5.88040      8.53036        -0.001231      0.000249      2.011664
      7.73503      4.41030      7.26518        -2.145082      0.000616     -0.833183
      5.20467      4.41030      7.26518         2.147465      0.000598     -0.833310
      6.46985      5.88040      9.23493         0.000784     -0.000375     -1.535185
      6.46985      5.88040     11.76529         0.002439     -0.000722     -0.148144
      4.50011      4.41030     10.50011         0.474451      0.000606      0.057691
      8.43960      4.41030     10.50011        -0.467049      0.000702      0.060239
      3.23493      5.88040     12.46985        -0.007830      0.002490     -0.080375
      3.23493      5.88040     15.00021        -0.016691     -0.000141      0.058352
      7.73503      4.41030     13.73503        -0.429771      0.025897      0.068970
      5.20467      4.41030     13.73503         0.466476      0.027723      0.072783
      6.47437      5.87889     15.72615         0.000016      0.000253      0.002645
      6.46322      5.88299     18.27902         0.001514      0.000614     -0.007700
      4.52179      4.40998     16.99039         0.000044      0.001530      0.001181
      8.42212      4.41065     17.00306         0.001123      0.000865     -0.000681
      3.23059      5.88341     18.95038         0.002209      0.000577      0.000344
      3.26009      5.88300     21.49329        -0.000712      0.000236      0.002989
      7.71480      4.36890     20.26519         0.005629     -0.001959     -0.001169
      5.26471      4.40036     20.36492        -0.002678     -0.001277      0.000457
 -----------------------------------------------------------------------------------
    total drift:                                0.026604     -0.000395     -0.009138


--------------------------------------------------------------------------------------------------------



  FREE ENERGIE OF THE ION-ELECTRON SYSTEM (eV)
  ---------------------------------------------------
  free  energy   TOTEN  =     -2655.83534636 eV

  energy  without entropy=    -2655.83534636  energy(sigma->0) =    -2655.83534636
 
 d Force = 0.8962945E-05[ 0.214E-06, 0.177E-04]  d Energy = 0.8551964E-05 0.411E-06
 d Force =-0.7188364E-01[-0.719E-01,-0.719E-01]  d Ewald  =-0.7188366E-01 0.232E-07


--------------------------------------------------------------------------------------------------------


    POTLOK:  cpu time      0.4516: real time      0.4525


--------------------------------------------------------------------------------------------------------




--------------------------------------------------------------------------------------------------------


  
 reached required accuracy - stopping structural energy minimisation
     LOOP+:  cpu time   1503.0405: real time   1508.3310
    4ORBIT:  cpu time      0.0000: real time      0.0000

 total amount of memory used by VASP MPI-rank0   409963. kBytes
=======================================================================

   base      :      30000. kBytes
   nonl-proj :      37711. kBytes
   fftplans  :       3724. kBytes
   grid      :       5398. kBytes
   one-center:        140. kBytes
   HF        :        135. kBytes
   nonlr-proj:     259150. kBytes
   wavefun   :      29337. kBytes
   fock_wrk  :      44368. kBytes
 
  
  
 General timing and accounting informations for this job:
 ========================================================
  
                  Total CPU time used (sec):    12159.350
                            User time (sec):    10680.291
                          System time (sec):     1479.059
                         Elapsed time (sec):    12203.972
  
                   Maximum memory used (kb):      794380.
                   Average memory used (kb):          N/A
  
                          Minor page faults:       229469
                          Major page faults:           95
                 Voluntary context switches:         3626
