 **********************************************************************
                          MRCC program system
 **********************************************************************
 
                              Written by
     Mihaly Kallay, Peter R. Nagy, David Mester, Laszlo Gyevi-Nagy,
        Jozsef Csoka, P. Bernat Szabo, Zoltan Rolik, Gyula Samu,
     Jozsef Csontos, Bence Hegely, Adam Ganyecz, Istvan Ladjanszki,
       Lorant Szegedy, Bence Ladoczki, Klara Petrov, Mate Farkas,
                    Pal D. Mezei, and Reka A. Horvath
 
        Department of Physical Chemistry and Materials Science
            Budapest University of Technology and Economics
                  Budapest P.O.Box 91, H-1521 Hungary
 
                              www.mrcc.hu
 
                      Release date: March 18, 2022

 ************************ 2023-02-04 11:51:17 *************************
 Executing minp...

 Reading input from MINP...
 
 Input file:
 
calc=FNO-CCSD(T)
verbosity=3
mem=220GB
unit=angs
scfiguess=small
scfalg=locfit1
ccmaxit=400
ccsdalg=dfdirect
ccsdthreads=4
ccsdmkl=thr
ptthreads=4
lnoepsv=1e-5
naf_cor=1e-2
basis=aug-cc-pVTZ
basis_sm=def2-SVP
dfbasis_scf=def2-QZVPP-RI-JK
dfbasis_cor=aug-cc-pVTZ-RI
unit=angs
geom=xyz
10

C    29.54344629    29.54344629    16.97505516
H    29.54344670    30.44187631    17.60392580
H    29.54344662    28.64496649    17.60393442
H    30.44658454    29.54342777    16.34911135
H    28.64030918    29.54342779    16.34911130
C    12.66147698    29.54344629    16.97505516
H    12.66147739    30.44187631    17.60392580
H    12.66147731    28.64496649    17.60393442
H    13.56461523    29.54342777    16.34911135
H    11.75833987    29.54342779    16.34911130

--------------------Output has been truncated-------------------------


--------------------Output has been truncated-------------------------


--------------------Output has been truncated-------------------------


--------------------Output has been truncated-------------------------


--------------------Output has been truncated-------------------------


--------------------Output has been truncated-------------------------


--------------------Output has been truncated-------------------------


--------------------Output has been truncated-------------------------


--------------------Output has been truncated-------------------------


--------------------Output has been truncated-------------------------


 
 Reference energy [au]:                       -40.213014007171
 DF-MP2 singlet pair energy [au]:              -0.164418775976
 DF-MP2 triplet pair energy [au]:              -0.036594509228
 DF-SCS-MP2 correlation energy [au]:           -0.209500700914
 DF-SCS-MP2 energy [au]:                      -40.422514708085
 DF-SOS-MP2 correlation energy [au]:           -0.213744408769
 DF-SOS-MP2 energy [au]:                      -40.426758415940
 DF-MP2 correlation energy [au]:               -0.201013285204
 DF-MP2 energy [au]:                          -40.414027292375

 Results in FNO basis:
 
 
 Reference energy [au]:                       -40.213014007171
 DF-MP2 singlet pair energy [au]:              -0.163768538571
 DF-MP2 triplet pair energy [au]:              -0.036550753706
 DF-SCS-MP2 correlation energy [au]:           -0.208705830854
 DF-SCS-MP2 energy [au]:                      -40.421719838025
 DF-SOS-MP2 correlation energy [au]:           -0.212899100142
 DF-SOS-MP2 energy [au]:                      -40.425913107313
 DF-MP2 correlation energy [au]:               -0.200319292277
 DF-MP2 energy [au]:                          -40.413333299448

 Results in NAF basis:
 
 
 Reference energy [au]:                       -40.213014007171
 DF-MP2 singlet pair energy [au]:              -0.163734265794
 DF-MP2 triplet pair energy [au]:              -0.036570032075
 DF-SCS-MP2 correlation energy [au]:           -0.208671129644
 DF-SCS-MP2 energy [au]:                      -40.421685136815
 DF-SOS-MP2 correlation energy [au]:           -0.212854545532
 DF-SOS-MP2 energy [au]:                      -40.425868552703
 DF-MP2 correlation energy [au]:               -0.200304297869
 DF-MP2 energy [au]:                          -40.413318305040

 ************************ 2023-02-04 11:51:33 *************************
 Executing ccsd...

 Allocation of 220.0 Gbytes of memory...

 Direct DF-CCSD(T) calculation
 
 Convergence criterion:  1.0E-06
 
 Number of occupied/virtual/auxiliary orbitals:     4    83   221
     89.04 MB is the minimal memory requirement for (T)
     22.38 MB is the minimal memory requirement for CCSD
 
 Reference energy [au]:             -40.213014007171
 T1 contribution [au]:                0.000000000000
 Same spin MP2 energy [au]:          -0.036560365511
 Opposite spin MP2 energy [au]:      -0.163751320641
 MP2 correlation energy [au]:        -0.200311686151
 Total MP2 energy [au]:             -40.413325693322
 MP2 correction [au]:                -0.000701599053
 
 
 CPU time [min]:     0.060                   Wall time [min]:     0.004
 
 Starting CCSD iterations...
 
                     Residual norm          Energy
 Iteration  1        0.131886662194      -40.427793496543
 Iteration  2        0.033754329717      -40.433316472105
 Iteration  3        0.008181264773      -40.433782586947
 Iteration  4        0.001913828224      -40.433785189826
 Iteration  5        0.000362932774      -40.433792239468
 Iteration  6        0.000073614125      -40.433792372499
 Iteration  7        0.000017727601      -40.433792977713
 Iteration  8        0.000003099781      -40.433792995398
 
 CCSD iteration has converged in  8 steps.
      207.43 MB memory was utilized by CCSD
 
 T1 diagnostic:      7.475E-03            D1 diagnostic:      1.210E-02
 
 T1 contribution [au]:                                  0.000000000000
 PPL energy contribution [au]:                          0.057486885558
 Scaled PPL energy contribution [au]:                   0.057689913408

 OS-PPL energy contribution [au]:                       0.050871915662
 Scaled OS-PPL energy contribution [au]:                0.051084049917
 SS-PPL energy contribution [au]:                       0.006614969896
 Scaled SS-PPL energy contribution [au]:                0.006619533383

 Opposite spin CCSD energy [au]:                       -0.185468100188
 Same spin CCSD energy [au]:                           -0.035322322483
 CCSD correlation energy [au]:                         -0.220790422671
 CCSD correlation energy + MP2 correction [au]:        -0.221492021724
 CCSD correlation energy + MP2 + PPL corr. [au]:       -0.221288993873
 Total CCSD energy [au]:                              -40.433804429842
 Total CCSD energy + MP2 correction [au]:             -40.434506028895
 Total CCSD energy + MP2 + PPL corr. [au]:            -40.434303001044
 
 CPU time [min]:     0.454                   Wall time [min]:     0.015
 
 Calculation of (T) correction...
 
 
       67.65 MB memory is utilized for (T)

 0%       25%       50%       75%       100%
 |---------|---------|---------|---------| 
 
 (T) correction [au]:                                    -0.006568652035
 (T*) correction [au]:                                   -0.006591658981
 (T+) correction [au]:                                   -0.006591679135
 CCSD(T) correlation energy [au]:                        -0.227359074706
 CCSD(T) correlation energy + MP2 correction [au]:       -0.228060673759
 CCSD(T+) correlation en. + MP2 + PPL corr. [au]:        -0.227880673008
 Total CCSD(T) energy [au]:                             -40.440373081877
 Total CCSD(T) energy + MP2 correction [au]:            -40.441074680930
 Total CCSD(T+) energy + MP2 + PPL corr. [au]:          -40.440894680179
 
 CPU time [min]:     0.520                   Wall time [min]:     0.017
 
 ************************ 2023-02-04 11:51:34 *************************
                      Normal termination of mrcc.
 **********************************************************************
