 **********************************************************************
                          MRCC program system
 **********************************************************************
 
                              Written by
     Mihaly Kallay, Peter R. Nagy, David Mester, Laszlo Gyevi-Nagy,
        Jozsef Csoka, P. Bernat Szabo, Zoltan Rolik, Gyula Samu,
     Jozsef Csontos, Bence Hegely, Adam Ganyecz, Istvan Ladjanszki,
       Lorant Szegedy, Bence Ladoczki, Klara Petrov, Mate Farkas,
                    Pal D. Mezei, and Reka A. Horvath
 
        Department of Physical Chemistry and Materials Science
            Budapest University of Technology and Economics
                  Budapest P.O.Box 91, H-1521 Hungary
 
                              www.mrcc.hu
 
                      Release date: March 18, 2022

 ************************ 2024-02-06 13:43:57 *************************
 Executing minp...

 Reading input from MINP...
 
 Input file:
 
calc=FNO-CCSD(T)
verbosity=3
mem=220GB
unit=angs
scfiguess=small
scfalg=locfit1
ccmaxit=400
ccsdalg=dfdirect
ccsdthreads=4
ccsdmkl=thr
ptthreads=4
lnoepsv=1e-5
naf_cor=1e-2
basis=aug-cc-pVTZ
basis_sm=def2-SVP
dfbasis_scf=def2-QZVPP-RI-JK
dfbasis_cor=aug-cc-pVTZ-RI
unit=angs
geom=xyz
12

H     6.99490617     7.23756519    16.25105594
H     5.55295574     6.60195460    16.39048342
O     6.47170340     6.40747381    16.13767208
H     9.87775989     5.47134921    16.26958622
H    11.33605388     6.06979352    16.39129416
O    10.42212875     6.28582631    16.13893456
H     7.56610137     4.92473053    16.26136841
H     8.17879292     3.47745490    16.43766050
O     8.38265406     4.38043644    16.14137534
H     9.33709402     7.82450804    16.25810800
H     8.70116862     9.27305031    16.31724160
O     8.50366513     8.33839294    16.13199788

--------------------Output has been truncated-------------------------


--------------------Output has been truncated-------------------------


--------------------Output has been truncated-------------------------


--------------------Output has been truncated-------------------------


--------------------Output has been truncated-------------------------


--------------------Output has been truncated-------------------------


--------------------Output has been truncated-------------------------


--------------------Output has been truncated-------------------------


--------------------Output has been truncated-------------------------


--------------------Output has been truncated-------------------------


 
 Reference energy [au]:                       -76.057937405320
 DF-MP2 singlet pair energy [au]:              -0.204993947640
 DF-MP2 triplet pair energy [au]:              -0.065574185129
 DF-SCS-MP2 correlation energy [au]:           -0.267850798878
 DF-SCS-MP2 energy [au]:                      -76.325788204198
 DF-SOS-MP2 correlation energy [au]:           -0.266492131933
 DF-SOS-MP2 energy [au]:                      -76.324429537253
 DF-MP2 correlation energy [au]:               -0.270568132770
 DF-MP2 energy [au]:                          -76.328505538090

 Results in FNO basis:
 
 
 Reference energy [au]:                       -76.057937405320
 DF-MP2 singlet pair energy [au]:              -0.204467509119
 DF-MP2 triplet pair energy [au]:              -0.065527391564
 DF-SCS-MP2 correlation energy [au]:           -0.267203474798
 DF-SCS-MP2 energy [au]:                      -76.325140880118
 DF-SOS-MP2 correlation energy [au]:           -0.265807761855
 DF-SOS-MP2 energy [au]:                      -76.323745167175
 DF-MP2 correlation energy [au]:               -0.269994900683
 DF-MP2 energy [au]:                          -76.327932306003

 Results in NAF basis:
 
 
 Reference energy [au]:                       -76.057937405320
 DF-MP2 singlet pair energy [au]:              -0.204413443856
 DF-MP2 triplet pair energy [au]:              -0.065576004951
 DF-SCS-MP2 correlation energy [au]:           -0.267154800944
 DF-SCS-MP2 energy [au]:                      -76.325092206264
 DF-SOS-MP2 correlation energy [au]:           -0.265737477013
 DF-SOS-MP2 energy [au]:                      -76.323674882333
 DF-MP2 correlation energy [au]:               -0.269989448807
 DF-MP2 energy [au]:                          -76.327926854128

 ************************ 2024-02-06 13:44:26 *************************
 Executing ccsd...

 Allocation of 220.0 Gbytes of memory...

 Direct DF-CCSD(T) calculation
 
 Convergence criterion:  1.0E-06
 
 Number of occupied/virtual/auxiliary orbitals:     4    62   164
     37.66 MB is the minimal memory requirement for (T)
     12.55 MB is the minimal memory requirement for CCSD
 
 Reference energy [au]:             -76.057937405320
 T1 contribution [au]:                0.000000000000
 Same spin MP2 energy [au]:          -0.065551630813
 Opposite spin MP2 energy [au]:      -0.204440306582
 MP2 correlation energy [au]:        -0.269991937395
 Total MP2 energy [au]:             -76.327929342715
 MP2 correction [au]:                -0.000576195374
 
 
 CPU time [min]:     0.065                   Wall time [min]:     0.004
 
 Starting CCSD iterations...
 
                     Residual norm          Energy
 Iteration  1        0.159688034201      -76.326370872756
 Iteration  2        0.035088703626      -76.331581828158
 Iteration  3        0.012904018188      -76.332845625873
 Iteration  4        0.002823131395      -76.332704098886
 Iteration  5        0.000842153959      -76.332734619486
 Iteration  6        0.000181666163      -76.332736302021
 Iteration  7        0.000041408174      -76.332735728492
 Iteration  8        0.000012356006      -76.332735595846
 Iteration  9        0.000003043282      -76.332735497019
 
 CCSD iteration has converged in  9 steps.
       71.26 MB memory was utilized by CCSD
 
 T1 diagnostic:      9.643E-03            D1 diagnostic:      2.047E-02
 
 T1 contribution [au]:                                  0.000000000000
 PPL energy contribution [au]:                          0.058408775899
 Scaled PPL energy contribution [au]:                   0.058534295077

 OS-PPL energy contribution [au]:                       0.048577750784
 Scaled OS-PPL energy contribution [au]:                0.048715837882
 SS-PPL energy contribution [au]:                       0.009831025115
 Scaled SS-PPL energy contribution [au]:                0.009831308883

 Opposite spin CCSD energy [au]:                       -0.216888196703
 Same spin CCSD energy [au]:                           -0.057921460581
 CCSD correlation energy [au]:                         -0.274809657284
 CCSD correlation energy + MP2 correction [au]:        -0.275385852658
 CCSD correlation energy + MP2 + PPL corr. [au]:       -0.275260333481
 Total CCSD energy [au]:                              -76.332747062604
 Total CCSD energy + MP2 correction [au]:             -76.333323257978
 Total CCSD energy + MP2 + PPL corr. [au]:            -76.333197738801
 
 CPU time [min]:     0.286                   Wall time [min]:     0.010
 
 Calculation of (T) correction...
 
 
       28.81 MB memory is utilized for (T)

 0%       25%       50%       75%       100%
 |---------|---------|---------|---------| 
 
 (T) correction [au]:                                    -0.008831303609
 (T*) correction [au]:                                   -0.008850150676
 (T+) correction [au]:                                   -0.008849879688
 CCSD(T) correlation energy [au]:                        -0.283640960893
 CCSD(T) correlation energy + MP2 correction [au]:       -0.284217156267
 CCSD(T+) correlation en. + MP2 + PPL corr. [au]:        -0.284110213169
 Total CCSD(T) energy [au]:                             -76.341578366213
 Total CCSD(T) energy + MP2 correction [au]:            -76.342154561587
 Total CCSD(T+) energy + MP2 + PPL corr. [au]:          -76.342047618489
 
 CPU time [min]:     0.322                   Wall time [min]:     0.011
 
 ************************ 2024-02-06 13:44:27 *************************
                      Normal termination of mrcc.
 **********************************************************************
