 vasp.6.3.0 20Jan22 (build Aug 21 2024 11:13:42) complex                         
 executed on        HPECrayEX_GCC date 2024.11.26  19:49:24
 running  512 mpi-ranks, with    1 threads/rank
 distrk:  each k-point on  512 cores,    1 groups
 distr:  one band on NCORE=  16 cores,   32 groups


--------------------------------------------------------------------------------------------------------


 INCAR:
   SYSTEM = TiO2
   ISMEAR = 0
   SIGMA = 0.05
   EDIFF = 1E-4
   ALGO = ALL
   ISTART = 0
   IBRION = -1
   NSW = 0
   ISYM = 0
   ISIF = 2
   EDIFFG = -0.01
   DIPOL = 0.5 0.5 0.5
   IDIPOL = 3
   LDIPOL = .TRUE.
   GGA = RE
   IVDW = 13
   VDW_S8 = 1.7468
   VDW_A1 = 0.5363
   VDW_A2 = 3.0726
   ENCUT = 600
   PREC = Accurate
   LASPH = .TRUE.
   LREAL = .FALSE.
   ISPIN = 1
   NELM = 200
   NELMIN = 8
   NCORE = 16
   KPAR = 1
   LWAVE = .FALSE.
   LCHARG = .FALSE.

 POTCAR:    PAW_PBE Ti_pv 07Sep2000               
 POTCAR:    PAW_PBE O 08Apr2002                   
 POTCAR:    PAW_PBE Ti_pv 07Sep2000               
   SHA256 =  f757a1b2c6d082f4c628fa3d987464a8763bf92e53844ac0500b0e2ddc9ce5c0 Ti_pv/POTCAR          
   COPYR  = (c) Copyright 07Sep2000 Georg Kresse                                                    
   COPYR  = This file is part of the software VASP. Any use, copying, and all other rights are regul
   COPYR  = If you do not have a valid VASP license, you may not use, copy or distribute this file. 
   VRHFIN =Ti: d3 s1                                                                                
   LEXCH  = PE                                                                                      
   EATOM  =  1042.5995 eV,   76.6289 Ry                                                             
                                                                                                    
   TITEL  = PAW_PBE Ti_pv 07Sep2000                                                                 
   LULTRA =        F    use ultrasoft PP ?                                                          
   IUNSCR =        1    unscreen: 0-lin 1-nonlin 2-no                                               
   RPACOR =    2.200    partial core radius                                                         
   POMASS =   47.880; ZVAL   =   10.000    mass and valenz                                          
   RCORE  =    2.500    outmost cutoff radius                                                       
   RWIGS  =    2.500; RWIGS  =    1.323    wigner-seitz radius (au A)                               
   ENMAX  =  222.335; ENMIN  =  166.751 eV                                                          
   RCLOC  =    1.701    cutoff for local pot                                                        
   LCOR   =        T    correct aug charges                                                         
   LPAW   =        T    paw PP                                                                      
   EAUG   =  482.848                                                                                
   DEXC   =    0.000                                                                                
   RMAX   =    2.564    core radius for proj-oper                                                   
   RAUG   =    1.300    factor for augmentation sphere                                              
   RDEP   =    2.538    radius for radial grids                                                     
   RDEPT  =    1.952    core radius for aug-charge                                                  
                                                                                                    
   Atomic configuration                                                                             
    8 entries                                                                                       
     n  l   j            E        occ.                                                              
     1  0  0.50     -4865.3608   2.0000                                                             
     2  0  0.50      -533.1368   2.0000                                                             
     2  1  1.50      -440.5031   6.0000                                                             
     3  0  0.50       -59.3186   2.0000                                                             
     3  1  1.50       -35.7012   6.0000                                                             
     3  2  2.50        -1.9157   3.0000                                                             
     4  0  0.50        -3.7291   1.0000                                                             
     4  3  2.50        -1.3606   0.0000                                                             
   Description                                                                                      
     l       E           TYP  RCUT    TYP  RCUT                                                     
     1    -35.7012140     23  2.300                                                                 
     1     -1.3605826     23  2.300                                                                 
     2     -1.9156996     23  2.500                                                                 
     2     -0.4063033     23  2.500                                                                 
     0     -3.7290856     23  2.500                                                                 
     0     20.4087390     23  2.500                                                                 
  local pseudopotential read in
  partial core-charges read in
  partial kinetic energy density read in
  atomic valenz-charges read in
  non local Contribution for L=           1  read in
    real space projection operators read in
  non local Contribution for L=           1  read in
    real space projection operators read in
  non local Contribution for L=           2  read in
    real space projection operators read in
  non local Contribution for L=           2  read in
    real space projection operators read in
  non local Contribution for L=           0  read in
    real space projection operators read in
  non local Contribution for L=           0  read in
    real space projection operators read in
    PAW grid and wavefunctions read in

   number of l-projection  operators is LMAX  =           6
   number of lm-projection operators is LMMAX =          18

 POTCAR:    PAW_PBE O 08Apr2002                   
   SHA256 =  818f92134a0a090dccd8ba1447fa70422a3b330e708bb4f08108d8ae51209ddf O/POTCAR              
   COPYR  = (c) Copyright 08Apr2002 Georg Kresse                                                    
   COPYR  = This file is part of the software VASP. Any use, copying, and all other rights are regul
   COPYR  = If you do not have a valid VASP license, you may not use, copy or distribute this file. 
   VRHFIN =O: s2p4                                                                                  
   LEXCH  = PE                                                                                      
   EATOM  =   432.3788 eV,   31.7789 Ry                                                             
                                                                                                    
   TITEL  = PAW_PBE O 08Apr2002                                                                     
   LULTRA =        F    use ultrasoft PP ?                                                          
   IUNSCR =        1    unscreen: 0-lin 1-nonlin 2-no                                               
   RPACOR =    1.200    partial core radius                                                         
   POMASS =   16.000; ZVAL   =    6.000    mass and valenz                                          
   RCORE  =    1.520    outmost cutoff radius                                                       
   RWIGS  =    1.550; RWIGS  =    0.820    wigner-seitz radius (au A)                               
   ENMAX  =  400.000; ENMIN  =  300.000 eV                                                          
   ICORE  =        2    local potential                                                             
   LCOR   =        T    correct aug charges                                                         
   LPAW   =        T    paw PP                                                                      
   EAUG   =  605.392                                                                                
   DEXC   =    0.000                                                                                
   RMAX   =    1.553    core radius for proj-oper                                                   
   RAUG   =    1.300    factor for augmentation sphere                                              
   RDEP   =    1.550    radius for radial grids                                                     
   RDEPT  =    1.329    core radius for aug-charge                                                  
                                                                                                    
   Atomic configuration                                                                             
    4 entries                                                                                       
     n  l   j            E        occ.                                                              
     1  0  0.50      -514.6923   2.0000                                                             
     2  0  0.50       -23.9615   2.0000                                                             
     2  1  0.50        -9.0305   4.0000                                                             
     3  2  1.50        -9.5241   0.0000                                                             
   Description                                                                                      
     l       E           TYP  RCUT    TYP  RCUT                                                     
     0    -23.9615318     23  1.200                                                                 
     0     -9.5240782     23  1.200                                                                 
     1     -9.0304911     23  1.520                                                                 
     1      8.1634956     23  1.520                                                                 
     2     -9.5240782      7  1.500                                                                 
  local pseudopotential read in
  partial core-charges read in
  partial kinetic energy density read in
  kinetic energy density of atom read in
  atomic valenz-charges read in
  non local Contribution for L=           0  read in
    real space projection operators read in
  non local Contribution for L=           0  read in
    real space projection operators read in
  non local Contribution for L=           1  read in
    real space projection operators read in
  non local Contribution for L=           1  read in
    real space projection operators read in
    PAW grid and wavefunctions read in

   number of l-projection  operators is LMAX  =           4
   number of lm-projection operators is LMMAX =           8

 -----------------------------------------------------------------------------
|                                                                             |
|               ----> ADVICE to this user running VASP <----                  |
|                                                                             |
|     You have a (more or less) 'large supercell' and for larger cells it     |
|     might be more efficient to use real-space projection operators.         |
|     Therefore, try LREAL= Auto in the INCAR file.                           |
|     Mind: For very accurate calculation, you might also keep the            |
|     reciprocal projection scheme (i.e. LREAL=.FALSE.).                      |
|                                                                             |
 -----------------------------------------------------------------------------

 -----------------------------------------------------------------------------
|                                                                             |
|               ----> ADVICE to this user running VASP <----                  |
|                                                                             |
|     You enforced a specific xc type in the INCAR file but a different       |
|     type was found in the POTCAR file.                                      |
|     I HOPE YOU KNOW WHAT YOU ARE DOING!                                     |
|                                                                             |
 -----------------------------------------------------------------------------

  PAW_PBE Ti_pv 07Sep2000               :
 energy of atom  1       EATOM=-1042.5995
 kinetic energy error for atom=    0.0007 (will be added to EATOM!!)
  PAW_PBE O 08Apr2002                   :
 energy of atom  2       EATOM= -432.3788
 kinetic energy error for atom=    0.0168 (will be added to EATOM!!)


 POSCAR: Ti  O
  positions in direct lattice
  No initial velocities read in
 -----------------------------------------------------------------------------
|                                                                             |
|           W    W    AA    RRRRR   N    N  II  N    N   GGGG   !!!           |
|           W    W   A  A   R    R  NN   N  II  NN   N  G    G  !!!           |
|           W    W  A    A  R    R  N N  N  II  N N  N  G       !!!           |
|           W WW W  AAAAAA  RRRRR   N  N N  II  N  N N  G  GGG   !            |
|           WW  WW  A    A  R   R   N   NN  II  N   NN  G    G                |
|           W    W  A    A  R    R  N    N  II  N    N   GGGG   !!!           |
|                                                                             |
|     Specifying the vdW parameters                                           |
|     VDW_S8 = 1.747                                                          |
|     VDW_A1 = 0.536                                                          |
|     VDW_A2 = 3.073                                                          |
|     in the INCAR file will overwrite the defaults for revpbe. Please        |
|     make sure that is what you intended.                                    |
|                                                                             |
 -----------------------------------------------------------------------------

 exchange correlation table for  LEXCH =       40
   RHO(1)=    0.500       N(1)  =     2000
   RHO(2)=  100.500       N(2)  =     4000



--------------------------------------------------------------------------------------------------------


 ion  position               nearest neighbor table
   1  0.750  0.625  0.265-  81 1.94  82 1.94 141 1.94 142 1.94 163 1.96  84 1.96  11 2.94  31 2.94

   2  0.000  0.750  0.265-  84 1.94 104 1.94 103 1.94  83 1.94  85 1.96  32 2.94  12 2.94
   3  0.000  0.625  0.382-  85 1.94  86 1.94 145 1.94 146 1.94  87 1.96  88 1.96  13 2.94  33 2.94

   4  0.750  0.750  0.382- 168 1.94 188 1.94  87 1.94 107 1.94  89 1.96  82 1.96  14 2.94  34 2.94

   5  0.750  0.625  0.500-  89 1.94  90 1.94 149 1.94 150 1.94 171 1.96  92 1.96  15 2.94  35 2.94

   6  0.000  0.750  0.500-  92 1.94 112 1.94 111 1.94  91 1.94  86 1.96  93 1.98  16 2.94  36 2.94

   7  1.000  0.625  0.616-  93 1.89 153 1.89  96 1.94  95 1.94 154 2.00  94 2.00  17 2.94  37 2.94

   8  0.750  0.750  0.622-  97 1.86 196 1.96 176 1.96 115 1.96  95 1.96  90 2.09  18 2.94  38 2.94

   9  0.750  0.625  0.743-  98 1.83 158 1.83 100 2.01 179 2.01  97 2.07 157 2.07  19 2.94  39 2.94

  10  1.000  0.750  0.731-  94 1.81 119 1.93 120 1.93  99 1.93 100 1.93  20 2.94  40 2.94
  11  0.750  0.875  0.265-  81 1.94  82 1.94 101 1.94 102 1.94 183 1.96 104 1.96   1 2.94  21 2.94

  12  0.000  0.000  0.265- 104 1.94 124 1.94 123 1.94 103 1.94 105 1.96  22 2.94   2 2.94
  13  0.000  0.875  0.382-  85 1.94  86 1.94 105 1.94 106 1.94 107 1.96 108 1.96   3 2.94  23 2.94

  14  0.750  0.000  0.382- 188 1.94 208 1.94 107 1.94 127 1.94 109 1.96 102 1.96   4 2.94  24 2.94

  15  0.750  0.875  0.500-  89 1.94  90 1.94 109 1.94 110 1.94 191 1.96 112 1.96   5 2.94  25 2.94

  16  0.000  0.000  0.500- 112 1.94 132 1.94 131 1.94 111 1.94 106 1.96 113 1.98   6 2.94  26 2.94

  17  1.000  0.875  0.616- 113 1.89  93 1.89 116 1.94 115 1.94 114 2.00  94 2.00  27 2.94   7 2.94

  18  0.750  0.000  0.622- 117 1.86 216 1.96 196 1.96 135 1.96 115 1.96 110 2.09  28 2.94   8 2.94

  19  0.750  0.875  0.744- 118 1.83  98 1.83 199 2.01 120 2.02 117 2.07  97 2.08   9 2.94  29 2.94

  20  1.000  0.000  0.731- 114 1.81 139 1.93 140 1.93 119 1.93 120 1.93  10 2.94  30 2.94
  21  0.750  0.125  0.265- 101 1.94 102 1.94 121 1.94 122 1.94 203 1.96 124 1.96  11 2.94  31 2.94

  22  0.000  0.250  0.265- 124 1.94 144 1.94 143 1.94 123 1.94 125 1.96  32 2.94  12 2.94
  23  0.000  0.125  0.382- 105 1.94 106 1.94 125 1.94 126 1.94 127 1.96 128 1.96  13 2.94  33 2.94

  24  0.750  0.250  0.382- 208 1.94 228 1.94 127 1.94 147 1.94 129 1.96 122 1.96  14 2.94  34 2.94

  25  0.750  0.125  0.500- 109 1.94 110 1.94 129 1.94 130 1.94 211 1.96 132 1.96  15 2.94  35 2.94

  26  0.000  0.250  0.500- 132 1.94 152 1.94 151 1.94 131 1.94 126 1.96 133 1.98  16 2.94  36 2.94

  27  1.000  0.125  0.616- 133 1.89 113 1.89 136 1.94 135 1.94 114 2.00 134 2.00  17 2.94  37 2.94

  28  0.750  0.250  0.622- 137 1.86 216 1.96 236 1.96 155 1.96 135 1.96 130 2.09  18 2.94  38 2.94

  29  0.750  0.125  0.744- 138 1.83 118 1.83 219 2.01 140 2.02 137 2.07 117 2.08  19 2.94  39 2.94

  30  1.000  0.250  0.731- 134 1.81 139 1.93 140 1.93 159 1.93 160 1.93  20 2.94  40 2.94
  31  0.750  0.375  0.265- 121 1.94 122 1.94 141 1.94 142 1.94 223 1.96 144 1.96   1 2.94  21 2.94

  32  0.000  0.500  0.265-  84 1.94 144 1.94 143 1.94  83 1.94 145 1.96  22 2.94   2 2.94
  33  0.000  0.375  0.382- 125 1.94 126 1.94 145 1.94 146 1.94 147 1.96 148 1.96   3 2.94  23 2.94

  34  0.750  0.500  0.382- 168 1.94 228 1.94  87 1.94 147 1.94 142 1.96 149 1.96   4 2.94  24 2.94

  35  0.750  0.375  0.500- 129 1.94 130 1.94 149 1.94 150 1.94 231 1.96 152 1.96   5 2.94  25 2.94

  36  0.000  0.500  0.500-  92 1.94 152 1.94 151 1.94  91 1.94 146 1.96 153 1.98   6 2.94  26 2.94

  37  1.000  0.375  0.616- 133 1.89 153 1.89 156 1.94 155 1.94 134 2.00 154 2.00  27 2.94   7 2.94

  38  0.750  0.500  0.622- 157 1.86 236 1.96 176 1.96 155 1.96  95 1.96 150 2.09  28 2.94   8 2.94

  39  0.750  0.375  0.744- 138 1.83 158 1.83 239 2.01 160 2.01 157 2.07 137 2.08  29 2.94   9 2.94

  40  1.000  0.500  0.731- 154 1.81 159 1.93 160 1.93  99 1.93 100 1.93  10 2.94  30 2.94
  41  0.250  0.625  0.265- 161 1.94 162 1.94 221 1.94 222 1.94  83 1.96 164 1.96  51 2.94  71 2.94

  42  0.500  0.750  0.265- 164 1.94 184 1.94 183 1.94 163 1.94 165 1.96  72 2.94  52 2.94
  43  0.500  0.625  0.382- 165 1.94 166 1.94 225 1.94 226 1.94 167 1.96 168 1.96  53 2.94  73 2.94

  44  0.250  0.750  0.382-  88 1.94 108 1.94 167 1.94 187 1.94 169 1.96 162 1.96  54 2.94  74 2.94

  45  0.250  0.625  0.500- 169 1.94 170 1.94 229 1.94 230 1.94  91 1.96 172 1.96  55 2.94  75 2.94

  46  0.500  0.750  0.500- 172 1.94 192 1.94 191 1.94 171 1.94 166 1.96 173 1.98  56 2.94  76 2.94

  47  0.500  0.625  0.616- 233 1.89 173 1.90 176 1.94 175 1.94 174 1.99 234 1.99  77 2.93  57 2.94

  48  0.250  0.750  0.622- 177 1.86 195 1.96 175 1.96 116 1.96  96 1.96 170 2.09  58 2.94  78 2.94

  49  0.250  0.625  0.743- 178 1.83 238 1.83  99 2.01 180 2.01 177 2.07 237 2.07  59 2.94  79 2.94

  50  0.500  0.751  0.731- 174 1.81 179 1.93 180 1.93 199 1.93 200 1.93  60 2.93  80 2.96
  51  0.250  0.875  0.265- 161 1.94 162 1.94 181 1.94 182 1.94 103 1.96 184 1.96  41 2.94  61 2.94

  52  0.500  0.000  0.265- 184 1.94 204 1.94 203 1.94 183 1.94 185 1.96  62 2.94  42 2.94
  53  0.500  0.875  0.382- 165 1.94 166 1.94 185 1.94 186 1.94 187 1.96 188 1.96  43 2.94  63 2.94

  54  0.250  0.000  0.382- 108 1.94 128 1.94 187 1.94 207 1.94 189 1.96 182 1.96  44 2.94  64 2.94

  55  0.250  0.875  0.500- 169 1.94 170 1.94 189 1.94 190 1.94 111 1.96 192 1.96  45 2.94  65 2.94

  56  0.500  0.000  0.500- 192 1.94 212 1.94 211 1.94 191 1.94 186 1.96 193 1.98  46 2.94  66 2.94

  57  0.500  0.875  0.615- 173 1.89 193 1.89 196 1.94 195 1.94 174 1.99 194 2.00  47 2.94  67 2.95

  58  0.250  0.000  0.622- 197 1.86 215 1.96 195 1.96 136 1.96 116 1.96 190 2.09  68 2.94  48 2.94

  59  0.250  0.875  0.744- 198 1.83 178 1.83 200 2.01 119 2.02 197 2.07 177 2.08  49 2.94  69 2.94

  60  0.500  0.000  0.731- 194 1.81 199 1.93 200 1.93 219 1.93 220 1.93  50 2.93  70 2.93
  61  0.250  0.125  0.265- 181 1.94 182 1.94 201 1.94 202 1.94 123 1.96 204 1.96  51 2.94  71 2.94

  62  0.500  0.250  0.265- 204 1.94 224 1.94 223 1.94 203 1.94 205 1.96  72 2.94  52 2.94
  63  0.500  0.125  0.382- 185 1.94 186 1.94 205 1.94 206 1.94 207 1.96 208 1.96  53 2.94  73 2.94

  64  0.250  0.250  0.382- 128 1.94 148 1.94 207 1.94 227 1.94 209 1.96 202 1.96  54 2.94  74 2.94

  65  0.250  0.125  0.500- 189 1.94 190 1.94 209 1.94 210 1.94 131 1.96 212 1.96  55 2.94  75 2.94

  66  0.500  0.250  0.500- 212 1.94 232 1.94 231 1.94 211 1.94 206 1.96 213 1.98  56 2.94  76 2.94

  67  0.500  0.125  0.615- 213 1.89 193 1.89 216 1.94 215 1.94 214 1.99 194 2.00  77 2.94  57 2.95

  68  0.250  0.250  0.622- 217 1.86 215 1.96 235 1.96 156 1.96 136 1.96 210 2.09  58 2.94  78 2.94

  69  0.250  0.125  0.744- 218 1.83 198 1.83 220 2.01 139 2.02 217 2.07 197 2.08  59 2.94  79 2.94

  70  0.500  0.250  0.731- 214 1.81 239 1.92 240 1.92 219 1.93 220 1.93  80 2.93  60 2.93
  71  0.250  0.375  0.265- 201 1.94 202 1.94 221 1.94 222 1.94 143 1.96 224 1.96  41 2.94  61 2.94

  72  0.500  0.500  0.265- 164 1.94 224 1.94 223 1.94 163 1.94 225 1.96  62 2.94  42 2.94
  73  0.500  0.375  0.382- 205 1.94 206 1.94 225 1.94 226 1.94 227 1.96 228 1.96  43 2.94  63 2.94

  74  0.250  0.500  0.382-  88 1.94 148 1.94 167 1.94 227 1.94 222 1.96 229 1.96  44 2.94  64 2.94

  75  0.250  0.375  0.500- 209 1.94 210 1.94 229 1.94 230 1.94 151 1.96 232 1.96  45 2.94  65 2.94

  76  0.500  0.500  0.500- 172 1.94 232 1.94 231 1.94 171 1.94 226 1.96 233 1.99  46 2.94  66 2.94

  77  0.500  0.376  0.616- 233 1.89 213 1.90 236 1.94 235 1.94 214 1.99 234 1.99  47 2.93  67 2.94

  78  0.250  0.500  0.622- 237 1.86 235 1.96 175 1.96 156 1.96  96 1.96 230 2.09  68 2.94  48 2.94

  79  0.250  0.375  0.744- 218 1.83 238 1.83 240 2.01 159 2.01 237 2.07 217 2.08  69 2.94  49 2.94

  80  0.500  0.499  0.732- 234 1.83 239 1.92 240 1.92 179 1.94 180 1.94  70 2.93  50 2.96
  81  0.750  0.750  0.219-   1 1.94  11 1.94
  82  0.750  0.750  0.311-   1 1.94  11 1.94   4 1.96
  83  0.098  0.625  0.265-   2 1.94  32 1.94  41 1.96
  84  0.902  0.625  0.265-   2 1.94  32 1.94   1 1.96
  85  0.000  0.750  0.336-   3 1.94  13 1.94   2 1.96
  86  0.000  0.750  0.428-   3 1.94  13 1.94   6 1.96
  87  0.848  0.625  0.382-   4 1.94  34 1.94   3 1.96
  88  0.152  0.625  0.382-  44 1.94  74 1.94   3 1.96
  89  0.750  0.750  0.454-   5 1.94  15 1.94   4 1.96
  90  0.750  0.750  0.546-   5 1.94  15 1.94   8 2.09
  91  0.098  0.625  0.500-   6 1.94  36 1.94  45 1.96
  92  0.902  0.625  0.500-   6 1.94  36 1.94   5 1.96
  93  1.000  0.750  0.572-  17 1.89   7 1.89   6 1.98
  94  0.000  0.750  0.665-  10 1.81  17 2.00   7 2.00
  95  0.850  0.625  0.618-   7 1.94   8 1.96  38 1.96
  96  0.150  0.625  0.618-   7 1.94  48 1.96  78 1.96
  97  0.751  0.750  0.690-   8 1.86   9 2.07  19 2.08
  98  0.749  0.750  0.783-   9 1.83  19 1.83
  99  0.094  0.625  0.743-  40 1.93  10 1.93  49 2.01
 100  0.906  0.625  0.743-  40 1.93  10 1.93   9 2.01
 101  0.750  0.000  0.219-  11 1.94  21 1.94
 102  0.750  0.000  0.311-  11 1.94  21 1.94  14 1.96
 103  0.098  0.875  0.265-   2 1.94  12 1.94  51 1.96
 104  0.902  0.875  0.265-   2 1.94  12 1.94  11 1.96
 105  0.000  0.000  0.336-  13 1.94  23 1.94  12 1.96
 106  0.000  0.000  0.428-  13 1.94  23 1.94  16 1.96
 107  0.848  0.875  0.382-   4 1.94  14 1.94  13 1.96
 108  0.152  0.875  0.382-  44 1.94  54 1.94  13 1.96
 109  0.750  0.000  0.454-  15 1.94  25 1.94  14 1.96
 110  0.750  0.000  0.546-  15 1.94  25 1.94  18 2.09
 111  0.098  0.875  0.500-   6 1.94  16 1.94  55 1.96
 112  0.902  0.875  0.500-   6 1.94  16 1.94  15 1.96
 113  1.000  0.000  0.572-  17 1.89  27 1.89  16 1.98
 114  0.000  0.000  0.665-  20 1.81  17 2.00  27 2.00
 115  0.850  0.875  0.619-  17 1.94   8 1.96  18 1.96
 116  0.150  0.875  0.619-  17 1.94  48 1.96  58 1.96
 117  0.750  0.000  0.690-  18 1.86  19 2.07  29 2.08
 118  0.750  0.000  0.783-  19 1.83  29 1.83
 119  0.094  0.875  0.743-  10 1.93  20 1.93  59 2.02
 120  0.906  0.875  0.743-  10 1.93  20 1.93  19 2.02
 121  0.750  0.250  0.219-  21 1.94  31 1.94
 122  0.750  0.250  0.311-  21 1.94  31 1.94  24 1.96
 123  0.098  0.125  0.265-  12 1.94  22 1.94  61 1.96
 124  0.902  0.125  0.265-  12 1.94  22 1.94  21 1.96
 125  0.000  0.250  0.336-  23 1.94  33 1.94  22 1.96
 126  0.000  0.250  0.428-  23 1.94  33 1.94  26 1.96
 127  0.848  0.125  0.382-  14 1.94  24 1.94  23 1.96
 128  0.152  0.125  0.382-  54 1.94  64 1.94  23 1.96
 129  0.750  0.250  0.454-  25 1.94  35 1.94  24 1.96
 130  0.750  0.250  0.546-  25 1.94  35 1.94  28 2.09
 131  0.098  0.125  0.500-  16 1.94  26 1.94  65 1.96
 132  0.902  0.125  0.500-  16 1.94  26 1.94  25 1.96
 133  1.000  0.250  0.572-  27 1.89  37 1.89  26 1.98
 134  0.000  0.250  0.665-  30 1.81  37 2.00  27 2.00
 135  0.850  0.125  0.619-  27 1.94  18 1.96  28 1.96
 136  0.150  0.125  0.619-  27 1.94  58 1.96  68 1.96
 137  0.751  0.250  0.690-  28 1.86  29 2.07  39 2.08
 138  0.750  0.250  0.783-  39 1.83  29 1.83
 139  0.094  0.125  0.743-  30 1.93  20 1.93  69 2.02
 140  0.906  0.125  0.743-  30 1.93  20 1.93  29 2.02
 141  0.750  0.500  0.219-   1 1.94  31 1.94
 142  0.750  0.500  0.311-   1 1.94  31 1.94  34 1.96
 143  0.098  0.375  0.265-  22 1.94  32 1.94  71 1.96
 144  0.902  0.375  0.265-  22 1.94  32 1.94  31 1.96
 145  0.000  0.500  0.336-   3 1.94  33 1.94  32 1.96
 146  0.000  0.500  0.428-   3 1.94  33 1.94  36 1.96
 147  0.848  0.375  0.382-  24 1.94  34 1.94  33 1.96
 148  0.152  0.375  0.382-  64 1.94  74 1.94  33 1.96
 149  0.750  0.500  0.454-   5 1.94  35 1.94  34 1.96
 150  0.750  0.500  0.546-   5 1.94  35 1.94  38 2.09
 151  0.098  0.375  0.500-  26 1.94  36 1.94  75 1.96
 152  0.902  0.375  0.500-  26 1.94  36 1.94  35 1.96
 153  1.000  0.500  0.572-  37 1.89   7 1.89  36 1.98
 154  0.000  0.500  0.665-  40 1.81   7 2.00  37 2.00
 155  0.850  0.375  0.618-  37 1.94  28 1.96  38 1.96
 156  0.150  0.375  0.618-  37 1.94  68 1.96  78 1.96
 157  0.751  0.500  0.690-  38 1.86   9 2.07  39 2.07
 158  0.748  0.500  0.783-  39 1.83   9 1.83
 159  0.094  0.375  0.743-  40 1.93  30 1.93  79 2.01
 160  0.906  0.375  0.743-  40 1.93  30 1.93  39 2.01
 161  0.250  0.750  0.219-  41 1.94  51 1.94
 162  0.250  0.750  0.311-  41 1.94  51 1.94  44 1.96
 163  0.598  0.625  0.265-  42 1.94  72 1.94   1 1.96
 164  0.402  0.625  0.265-  42 1.94  72 1.94  41 1.96
 165  0.500  0.750  0.336-  43 1.94  53 1.94  42 1.96
 166  0.500  0.750  0.428-  43 1.94  53 1.94  46 1.96
 167  0.348  0.625  0.382-  44 1.94  74 1.94  43 1.96
 168  0.652  0.625  0.382-   4 1.94  34 1.94  43 1.96
 169  0.250  0.750  0.454-  45 1.94  55 1.94  44 1.96
 170  0.250  0.750  0.546-  45 1.94  55 1.94  48 2.09
 171  0.598  0.625  0.500-  46 1.94  76 1.94   5 1.96
 172  0.402  0.625  0.500-  46 1.94  76 1.94  45 1.96
 173  0.500  0.749  0.572-  57 1.89  47 1.90  46 1.98
 174  0.500  0.751  0.665-  50 1.81  57 1.99  47 1.99
 175  0.350  0.625  0.619-  47 1.94  78 1.96  48 1.96
 176  0.650  0.625  0.619-  47 1.94  38 1.96   8 1.96
 177  0.249  0.750  0.690-  48 1.86  49 2.07  59 2.08
 178  0.251  0.750  0.783-  49 1.83  59 1.83
 179  0.594  0.626  0.742-  50 1.93  80 1.94   9 2.01
 180  0.406  0.626  0.742-  50 1.93  80 1.94  49 2.01
 181  0.250  0.000  0.219-  51 1.94  61 1.94
 182  0.250  0.000  0.311-  51 1.94  61 1.94  54 1.96
 183  0.598  0.875  0.265-  42 1.94  52 1.94  11 1.96
 184  0.402  0.875  0.265-  42 1.94  52 1.94  51 1.96
 185  0.500  0.000  0.336-  53 1.94  63 1.94  52 1.96
 186  0.500  0.000  0.428-  53 1.94  63 1.94  56 1.96
 187  0.348  0.875  0.382-  44 1.94  54 1.94  53 1.96
 188  0.652  0.875  0.382-   4 1.94  14 1.94  53 1.96
 189  0.250  0.000  0.454-  55 1.94  65 1.94  54 1.96
 190  0.250  0.000  0.546-  55 1.94  65 1.94  58 2.09
 191  0.598  0.875  0.500-  46 1.94  56 1.94  15 1.96
 192  0.402  0.875  0.500-  46 1.94  56 1.94  55 1.96
 193  0.500  0.000  0.572-  57 1.89  67 1.89  56 1.98
 194  0.500  0.000  0.665-  60 1.81  67 2.00  57 2.00
 195  0.350  0.875  0.618-  57 1.94  48 1.96  58 1.96
 196  0.650  0.875  0.618-  57 1.94   8 1.96  18 1.96
 197  0.250  0.000  0.690-  58 1.86  59 2.07  69 2.08
 198  0.250  0.000  0.783-  59 1.83  69 1.83
 199  0.594  0.876  0.742-  60 1.93  50 1.93  19 2.01
 200  0.406  0.876  0.742-  60 1.93  50 1.93  59 2.01
 201  0.250  0.250  0.219-  61 1.94  71 1.94
 202  0.250  0.250  0.311-  61 1.94  71 1.94  64 1.96
 203  0.598  0.125  0.265-  52 1.94  62 1.94  21 1.96
 204  0.402  0.125  0.265-  52 1.94  62 1.94  61 1.96
 205  0.500  0.250  0.336-  63 1.94  73 1.94  62 1.96
 206  0.500  0.250  0.428-  63 1.94  73 1.94  66 1.96
 207  0.348  0.125  0.382-  54 1.94  64 1.94  63 1.96
 208  0.652  0.125  0.382-  14 1.94  24 1.94  63 1.96
 209  0.250  0.250  0.454-  65 1.94  75 1.94  64 1.96
 210  0.250  0.250  0.546-  65 1.94  75 1.94  68 2.09
 211  0.598  0.125  0.500-  56 1.94  66 1.94  25 1.96
 212  0.402  0.125  0.500-  56 1.94  66 1.94  65 1.96
 213  0.500  0.251  0.572-  67 1.89  77 1.90  66 1.98
 214  0.500  0.249  0.665-  70 1.81  67 1.99  77 1.99
 215  0.350  0.125  0.618-  67 1.94  58 1.96  68 1.96
 216  0.650  0.125  0.618-  67 1.94  18 1.96  28 1.96
 217  0.249  0.250  0.690-  68 1.86  69 2.07  79 2.08
 218  0.250  0.250  0.783-  79 1.83  69 1.83
 219  0.594  0.125  0.742-  60 1.93  70 1.93  29 2.01
 220  0.406  0.125  0.742-  60 1.93  70 1.93  69 2.01
 221  0.250  0.500  0.219-  41 1.94  71 1.94
 222  0.250  0.500  0.311-  41 1.94  71 1.94  74 1.96
 223  0.598  0.375  0.265-  62 1.94  72 1.94  31 1.96
 224  0.402  0.375  0.265-  62 1.94  72 1.94  71 1.96
 225  0.500  0.500  0.336-  43 1.94  73 1.94  72 1.96
 226  0.500  0.500  0.428-  43 1.94  73 1.94  76 1.96
 227  0.348  0.375  0.382-  64 1.94  74 1.94  73 1.96
 228  0.652  0.375  0.382-  24 1.94  34 1.94  73 1.96
 229  0.250  0.500  0.454-  45 1.94  75 1.94  74 1.96
 230  0.250  0.500  0.546-  45 1.94  75 1.94  78 2.09
 231  0.598  0.375  0.500-  66 1.94  76 1.94  35 1.96
 232  0.402  0.375  0.500-  66 1.94  76 1.94  75 1.96
 233  0.500  0.500  0.573-  77 1.89  47 1.89  76 1.99
 234  0.500  0.500  0.665-  80 1.83  47 1.99  77 1.99
 235  0.350  0.375  0.619-  77 1.94  78 1.96  68 1.96
 236  0.650  0.375  0.619-  77 1.94  38 1.96  28 1.96
 237  0.249  0.500  0.690-  78 1.86  49 2.07  79 2.07
 238  0.252  0.500  0.783-  79 1.83  49 1.83
 239  0.594  0.374  0.742-  80 1.92  70 1.92  39 2.01
 240  0.406  0.374  0.742-  80 1.92  70 1.92  79 2.01


IMPORTANT INFORMATION: All symmetrisations will be switched off!
NOSYMM: (Re-)initialisation of all symmetry stuff for point group C_1.


----------------------------------------------------------------------------------------

                                     Primitive cell                                     

  volume of cell :    4157.1448

  direct lattice vectors                    reciprocal lattice vectors
    12.893495846  0.000000000  0.000000000     0.077558485  0.000000000  0.000000000
     0.000000000 11.761907618  0.000000000     0.000000000  0.085020222  0.000000000
     0.000000000  0.000000000 27.412377441     0.000000000  0.000000000  0.036479871

  length of vectors
    12.893495846 11.761907618 27.412377441     0.077558485  0.085020222  0.036479871

  position of ions in fractional coordinates (direct lattice)
     0.750000000  0.625000000  0.264823466
     0.000000000  0.750000000  0.264823466
     0.000000000  0.625000000  0.382411733
     0.750000000  0.750000000  0.382411733
     0.750000000  0.625000000  0.500000000
     0.000000000  0.750000000  0.500000000
     0.999999948  0.625070351  0.615614390
     0.750044021  0.750117307  0.622067359
     0.750153077  0.625331002  0.743136888
     0.999999764  0.750180935  0.730992750
     0.750000000  0.875000000  0.264823466
     0.000000000  0.000000000  0.264823466
     0.000000000  0.875000000  0.382411733
     0.750000000  0.000000000  0.382411733
     0.750000000  0.875000000  0.500000000
     0.000000000  0.000000000  0.500000000
     0.999999948  0.875075913  0.615643176
     0.750002571  0.000087391  0.622227781
     0.749940400  0.875218848  0.743610448
     0.999999755  0.000097702  0.731023981
     0.750000000  0.125000000  0.264823466
     0.000000000  0.250000000  0.264823466
     0.000000000  0.125000000  0.382411733
     0.750000000  0.250000000  0.382411733
     0.750000000  0.125000000  0.500000000
     0.000000000  0.250000000  0.500000000
     0.999999949  0.125032309  0.615663614
     0.750048210  0.250026461  0.622210000
     0.749996422  0.125173497  0.743617304
     0.999999770  0.250086097  0.731021188
     0.750000000  0.375000000  0.264823466
     0.000000000  0.500000000  0.264823466
     0.000000000  0.375000000  0.382411733
     0.750000000  0.500000000  0.382411733
     0.750000000  0.375000000  0.500000000
     0.000000000  0.500000000  0.500000000
     0.999999962  0.375025542  0.615619235
     0.750106886  0.500041742  0.622099569
     0.750165989  0.375187454  0.743508368
     0.999999769  0.500148881  0.730972091
     0.250000000  0.625000000  0.264823466
     0.500000000  0.750000000  0.264823466
     0.500000000  0.625000000  0.382411733
     0.250000000  0.750000000  0.382411733
     0.250000000  0.625000000  0.500000000
     0.500000000  0.750000000  0.500000000
     0.499999947  0.624541757  0.616110920
     0.249955792  0.750117305  0.622067364
     0.249846370  0.625330977  0.743136948
     0.499999744  0.750935535  0.730646544
     0.250000000  0.875000000  0.264823466
     0.500000000  0.000000000  0.264823466
     0.500000000  0.875000000  0.382411733
     0.250000000  0.000000000  0.382411733
     0.250000000  0.875000000  0.500000000
     0.500000000  0.000000000  0.500000000
     0.499999944  0.874848071  0.615308807
     0.249997229  0.000087388  0.622227768
     0.250059013  0.875218811  0.743610447
     0.499999754  0.000234133  0.730642078
     0.250000000  0.125000000  0.264823466
     0.500000000  0.250000000  0.264823466
     0.500000000  0.125000000  0.382411733
     0.250000000  0.250000000  0.382411733
     0.250000000  0.125000000  0.500000000
     0.500000000  0.250000000  0.500000000
     0.499999944  0.125300352  0.615328963
     0.249951605  0.250026463  0.622209988
     0.250002983  0.125173502  0.743617268
     0.499999742  0.249711241  0.730735608
     0.250000000  0.375000000  0.264823466
     0.500000000  0.500000000  0.264823466
     0.500000000  0.375000000  0.382411733
     0.250000000  0.500000000  0.382411733
     0.250000000  0.375000000  0.500000000
     0.500000000  0.500000000  0.500000000
     0.499999943  0.375534980  0.616089507
     0.249892943  0.500041754  0.622099577
     0.249833464  0.375187496  0.743508395
     0.499999777  0.499118417  0.732169595
     0.750000000  0.750000000  0.218879228
     0.750000000  0.750000000  0.310767704
     0.097680320  0.625000000  0.264823466
     0.902319680  0.625000000  0.264823466
     0.000000000  0.750000000  0.336467495
     0.000000000  0.750000000  0.428355971
     0.847680320  0.625000000  0.382411733
     0.152319680  0.625000000  0.382411733
     0.750000000  0.750000000  0.454055762
     0.750000000  0.750000000  0.545944238
     0.097680320  0.625000000  0.500000000
     0.902319680  0.625000000  0.500000000
     0.999999770  0.750103791  0.572339543
     0.000000050  0.750042377  0.664859075
     0.849918779  0.625127263  0.618429456
     0.150081009  0.625127256  0.618429145
     0.750625928  0.750326965  0.690074777
     0.749411122  0.749862087  0.783078938
     0.093699548  0.625108421  0.742746334
     0.906299877  0.625108429  0.742746182
     0.750000000  0.000000000  0.218879228
     0.750000000  0.000000000  0.310767704
     0.097680320  0.875000000  0.264823466
     0.902319680  0.875000000  0.264823466
     0.000000000  0.000000000  0.336467495
     0.000000000  0.000000000  0.428355971
     0.847680320  0.875000000  0.382411733
     0.152319680  0.875000000  0.382411733
     0.750000000  0.000000000  0.454055762
     0.750000000  0.000000000  0.545944238
     0.097680320  0.875000000  0.500000000
     0.902319680  0.875000000  0.500000000
     0.999999767  0.000072220  0.572354798
     0.000000060  0.000031101  0.664892089
     0.849903270  0.875130363  0.618503701
     0.150096508  0.875130346  0.618503386
     0.750273965  0.000132521  0.690199343
     0.750227754  0.000115076  0.783215676
     0.093705646  0.875048458  0.742699311
     0.906293759  0.875048472  0.742699152
     0.750000000  0.250000000  0.218879228
     0.750000000  0.250000000  0.310767704
     0.097680320  0.125000000  0.264823466
     0.902319680  0.125000000  0.264823466
     0.000000000  0.250000000  0.336467495
     0.000000000  0.250000000  0.428355971
     0.847680320  0.125000000  0.382411733
     0.152319680  0.125000000  0.382411733
     0.750000000  0.250000000  0.454055762
     0.750000000  0.250000000  0.545944238
     0.097680320  0.125000000  0.500000000
     0.902319680  0.125000000  0.500000000
     0.999999763  0.249984702  0.572354255
     0.000000063  0.250129226  0.664889228
     0.849913790  0.125005684  0.618546353
     0.150085983  0.125005690  0.618546024
     0.750622614  0.249913971  0.690171099
     0.749968543  0.250308824  0.783164337
     0.093663690  0.125153388  0.742680070
     0.906335694  0.125153385  0.742679887
     0.750000000  0.500000000  0.218879228
     0.750000000  0.500000000  0.310767704
     0.097680320  0.375000000  0.264823466
     0.902319680  0.375000000  0.264823466
     0.000000000  0.500000000  0.336467495
     0.000000000  0.500000000  0.428355971
     0.847680320  0.375000000  0.382411733
     0.152319680  0.375000000  0.382411733
     0.750000000  0.500000000  0.454055762
     0.750000000  0.500000000  0.545944238
     0.097680320  0.375000000  0.500000000
     0.902319680  0.375000000  0.500000000
     0.999999751  0.500038906  0.572337369
     0.000000060  0.500087345  0.664838765
     0.849920544  0.374992897  0.618456514
     0.150079243  0.374992922  0.618456208
     0.750991863  0.500098921  0.690082170
     0.748495405  0.500499546  0.783007343
     0.093696535  0.375258865  0.742780093
     0.906302919  0.375258841  0.742780002
     0.250000000  0.750000000  0.218879228
     0.250000000  0.750000000  0.310767704
     0.597680320  0.625000000  0.264823466
     0.402319680  0.625000000  0.264823466
     0.500000000  0.750000000  0.336467495
     0.500000000  0.750000000  0.428355971
     0.347680320  0.625000000  0.382411733
     0.652319680  0.625000000  0.382411733
     0.250000000  0.750000000  0.454055762
     0.250000000  0.750000000  0.545944238
     0.597680320  0.625000000  0.500000000
     0.402319680  0.625000000  0.500000000
     0.499999771  0.749461021  0.572353668
     0.500000043  0.750664729  0.664563967
     0.349738692  0.625029708  0.618735485
     0.650261096  0.625029700  0.618735190
     0.249373165  0.750326931  0.690074775
     0.250588452  0.749862090  0.783078983
     0.593955291  0.626128565  0.741767432
     0.406044118  0.626128543  0.741767331
     0.250000000  0.000000000  0.218879228
     0.250000000  0.000000000  0.310767704
     0.597680320  0.875000000  0.264823466
     0.402319680  0.875000000  0.264823466
     0.500000000  0.000000000  0.336467495
     0.500000000  0.000000000  0.428355971
     0.347680320  0.875000000  0.382411733
     0.652319680  0.875000000  0.382411733
     0.250000000  0.000000000  0.454055762
     0.250000000  0.000000000  0.545944238
     0.597680320  0.875000000  0.500000000
     0.402319680  0.875000000  0.500000000
     0.499999770  0.000065509  0.572157511
     0.500000056  0.000174017  0.664517494
     0.349766754  0.875081510  0.618479724
     0.650233028  0.875081504  0.618479413
     0.249725033  0.000132510  0.690199320
     0.249771847  0.000115082  0.783215639
     0.593919523  0.875621679  0.742187100
     0.406079854  0.875621684  0.742186948
     0.250000000  0.250000000  0.218879228
     0.250000000  0.250000000  0.310767704
     0.597680320  0.125000000  0.264823466
     0.402319680  0.125000000  0.264823466
     0.500000000  0.250000000  0.336467495
     0.500000000  0.250000000  0.428355971
     0.347680320  0.125000000  0.382411733
     0.652319680  0.125000000  0.382411733
     0.250000000  0.250000000  0.454055762
     0.250000000  0.250000000  0.545944238
     0.597680320  0.125000000  0.500000000
     0.402319680  0.125000000  0.500000000
     0.499999775  0.250652061  0.572348674
     0.500000041  0.249426728  0.664611818
     0.349747886  0.125067956  0.618483515
     0.650251897  0.125067962  0.618483207
     0.249376461  0.249914006  0.690171070
     0.250031020  0.250308816  0.783164319
     0.593880200  0.124926419  0.742454630
     0.406119149  0.124926407  0.742454436
     0.250000000  0.500000000  0.218879228
     0.250000000  0.500000000  0.310767704
     0.597680320  0.375000000  0.264823466
     0.402319680  0.375000000  0.264823466
     0.500000000  0.500000000  0.336467495
     0.500000000  0.500000000  0.428355971
     0.347680320  0.375000000  0.382411733
     0.652319680  0.375000000  0.382411733
     0.250000000  0.500000000  0.454055762
     0.250000000  0.500000000  0.545944238
     0.597680320  0.375000000  0.500000000
     0.402319680  0.375000000  0.500000000
     0.499999775  0.500039261  0.572538173
     0.500000027  0.500041501  0.665390755
     0.349737600  0.375083782  0.618758595
     0.650262191  0.375083781  0.618758295
     0.249007287  0.500098936  0.690082169
     0.251504126  0.500499534  0.783007428
     0.594168018  0.374118333  0.741558285
     0.405831422  0.374118356  0.741558235

  ion indices of the primitive-cell ions
   primitive index   ion index
                 1           1
                 2           2
                 3           3
                 4           4
                 5           5
                 6           6
                 7           7
                 8           8
                 9           9
                10          10
                11          11
                12          12
                13          13
                14          14
                15          15
                16          16
                17          17
                18          18
                19          19
                20          20
                21          21
                22          22
                23          23
                24          24
                25          25
                26          26
                27          27
                28          28
                29          29
                30          30
                31          31
                32          32
                33          33
                34          34
                35          35
                36          36
                37          37
                38          38
                39          39
                40          40
                41          41
                42          42
                43          43
                44          44
                45          45
                46          46
                47          47
                48          48
                49          49
                50          50
                51          51
                52          52
                53          53
                54          54
                55          55
                56          56
                57          57
                58          58
                59          59
                60          60
                61          61
                62          62
                63          63
                64          64
                65          65
                66          66
                67          67
                68          68
                69          69
                70          70
                71          71
                72          72
                73          73
                74          74
                75          75
                76          76
                77          77
                78          78
                79          79
                80          80
                81          81
                82          82
                83          83
                84          84
                85          85
                86          86
                87          87
                88          88
                89          89
                90          90
                91          91
                92          92
                93          93
                94          94
                95          95
                96          96
                97          97
                98          98
                99          99
               100         100
               101         101
               102         102
               103         103
               104         104
               105         105
               106         106
               107         107
               108         108
               109         109
               110         110
               111         111
               112         112
               113         113
               114         114
               115         115
               116         116
               117         117
               118         118
               119         119
               120         120
               121         121
               122         122
               123         123
               124         124
               125         125
               126         126
               127         127
               128         128
               129         129
               130         130
               131         131
               132         132
               133         133
               134         134
               135         135
               136         136
               137         137
               138         138
               139         139
               140         140
               141         141
               142         142
               143         143
               144         144
               145         145
               146         146
               147         147
               148         148
               149         149
               150         150
               151         151
               152         152
               153         153
               154         154
               155         155
               156         156
               157         157
               158         158
               159         159
               160         160
               161         161
               162         162
               163         163
               164         164
               165         165
               166         166
               167         167
               168         168
               169         169
               170         170
               171         171
               172         172
               173         173
               174         174
               175         175
               176         176
               177         177
               178         178
               179         179
               180         180
               181         181
               182         182
               183         183
               184         184
               185         185
               186         186
               187         187
               188         188
               189         189
               190         190
               191         191
               192         192
               193         193
               194         194
               195         195
               196         196
               197         197
               198         198
               199         199
               200         200
               201         201
               202         202
               203         203
               204         204
               205         205
               206         206
               207         207
               208         208
               209         209
               210         210
               211         211
               212         212
               213         213
               214         214
               215         215
               216         216
               217         217
               218         218
               219         219
               220         220
               221         221
               222         222
               223         223
               224         224
               225         225
               226         226
               227         227
               228         228
               229         229
               230         230
               231         231
               232         232
               233         233
               234         234
               235         235
               236         236
               237         237
               238         238
               239         239
               240         240

----------------------------------------------------------------------------------------



 KPOINTS: pymatgen v2020.8.13 with grid density = 

Automatic generation of k-mesh.
 Grid dimensions read from file:
 generate k-points for:    2    2    1

 Generating k-lattice:

  Cartesian coordinates                     Fractional coordinates (reciprocal lattice)
     0.038779242  0.000000000  0.000000000     0.500000000  0.000000000  0.000000000
     0.000000000  0.042510111  0.000000000     0.000000000  0.500000000  0.000000000
     0.000000000  0.000000000  0.036479871     0.000000000  0.000000000  1.000000000

  Length of vectors
     0.038779242  0.042510111  0.036479871

  Shift w.r.t. Gamma in fractional coordinates (k-lattice)
     0.000000000  0.000000000  0.000000000

 
 Subroutine IBZKPT returns following result:
 ===========================================
 
 Found      4 irreducible k-points:
 
 Following reciprocal coordinates:
            Coordinates               Weight
  0.000000  0.000000  0.000000      1.000000
  0.500000  0.000000  0.000000      1.000000
  0.000000  0.500000  0.000000      1.000000
  0.500000  0.500000  0.000000      1.000000
 
 Following cartesian coordinates:
            Coordinates               Weight
  0.000000  0.000000  0.000000      1.000000
  0.038779  0.000000  0.000000      1.000000
  0.000000  0.042510  0.000000      1.000000
  0.038779  0.042510  0.000000      1.000000
 


--------------------------------------------------------------------------------------------------------




 Dimension of arrays:
   k-points           NKPTS =      4   k-points in BZ     NKDIM =      4   number of bands    NBANDS=   1056
   number of dos      NEDOS =    301   number of ions     NIONS =    240
   non local maximal  LDIM  =      6   non local SUM 2l+1 LMDIM =     18
   total plane-waves  NPLWV = ******
   max r-space proj   IRMAX =      1   max aug-charges    IRDMAX=  21887
   dimension x,y,z NGX =   108 NGY =   96 NGZ =  224
   dimension x,y,z NGXF=   216 NGYF=  192 NGZF=  448
   support grid    NGXF=   216 NGYF=  192 NGZF=  448
   ions per type =              80 160
   NGX,Y,Z   is equivalent  to a cutoff of  13.93, 13.57, 13.58 a.u.
   NGXF,Y,Z  is equivalent  to a cutoff of  27.85, 27.14, 27.17 a.u.

 SYSTEM =  TiO2                                    
 POSCAR =  Ti  O                                   

--------------------------------------------------------------------------------------------------------


  energy-cutoff  :      600.00
  volume of cell :     4157.14
      direct lattice vectors                 reciprocal lattice vectors
    12.893495846  0.000000000  0.000000000     0.077558485  0.000000000  0.000000000
     0.000000000 11.761907618  0.000000000     0.000000000  0.085020222  0.000000000
     0.000000000  0.000000000 27.412377441     0.000000000  0.000000000  0.036479871

  length of vectors
    12.893495846 11.761907618 27.412377441     0.077558485  0.085020222  0.036479871



 k-points in units of 2pi/SCALE and weight: pymatgen v2020.8.13 with grid density = 
   0.00000000  0.00000000  0.00000000       0.250
   0.03877924  0.00000000  0.00000000       0.250
   0.00000000  0.04251011  0.00000000       0.250
   0.03877924  0.04251011  0.00000000       0.250

 k-points in reciprocal lattice and weights: pymatgen v2020.8.13 with grid density = 
   0.00000000  0.00000000  0.00000000       0.250
   0.50000000  0.00000000  0.00000000       0.250
   0.00000000  0.50000000  0.00000000       0.250
   0.50000000  0.50000000  0.00000000       0.250

 position of ions in fractional coordinates (direct lattice) 
   0.75000000  0.62500000  0.26482347
   0.00000000  0.75000000  0.26482347
   0.00000000  0.62500000  0.38241173
   0.75000000  0.75000000  0.38241173
   0.75000000  0.62500000  0.50000000
   0.00000000  0.75000000  0.50000000
   0.99999995  0.62507035  0.61561439
   0.75004402  0.75011731  0.62206736
   0.75015308  0.62533100  0.74313689
   0.99999976  0.75018093  0.73099275
   0.75000000  0.87500000  0.26482347
   0.00000000  0.00000000  0.26482347
   0.00000000  0.87500000  0.38241173
   0.75000000  0.00000000  0.38241173
   0.75000000  0.87500000  0.50000000
   0.00000000  0.00000000  0.50000000
   0.99999995  0.87507591  0.61564318
   0.75000257  0.00008739  0.62222778
   0.74994040  0.87521885  0.74361045
   0.99999976  0.00009770  0.73102398
   0.75000000  0.12500000  0.26482347
   0.00000000  0.25000000  0.26482347
   0.00000000  0.12500000  0.38241173
   0.75000000  0.25000000  0.38241173
   0.75000000  0.12500000  0.50000000
   0.00000000  0.25000000  0.50000000
   0.99999995  0.12503231  0.61566361
   0.75004821  0.25002646  0.62221000
   0.74999642  0.12517350  0.74361730
   0.99999977  0.25008610  0.73102119
   0.75000000  0.37500000  0.26482347
   0.00000000  0.50000000  0.26482347
   0.00000000  0.37500000  0.38241173
   0.75000000  0.50000000  0.38241173
   0.75000000  0.37500000  0.50000000
   0.00000000  0.50000000  0.50000000
   0.99999996  0.37502554  0.61561923
   0.75010689  0.50004174  0.62209957
   0.75016599  0.37518745  0.74350837
   0.99999977  0.50014888  0.73097209
   0.25000000  0.62500000  0.26482347
   0.50000000  0.75000000  0.26482347
   0.50000000  0.62500000  0.38241173
   0.25000000  0.75000000  0.38241173
   0.25000000  0.62500000  0.50000000
   0.50000000  0.75000000  0.50000000
   0.49999995  0.62454176  0.61611092
   0.24995579  0.75011731  0.62206736
   0.24984637  0.62533098  0.74313695
   0.49999974  0.75093554  0.73064654
   0.25000000  0.87500000  0.26482347
   0.50000000  0.00000000  0.26482347
   0.50000000  0.87500000  0.38241173
   0.25000000  0.00000000  0.38241173
   0.25000000  0.87500000  0.50000000
   0.50000000  0.00000000  0.50000000
   0.49999994  0.87484807  0.61530881
   0.24999723  0.00008739  0.62222777
   0.25005901  0.87521881  0.74361045
   0.49999975  0.00023413  0.73064208
   0.25000000  0.12500000  0.26482347
   0.50000000  0.25000000  0.26482347
   0.50000000  0.12500000  0.38241173
   0.25000000  0.25000000  0.38241173
   0.25000000  0.12500000  0.50000000
   0.50000000  0.25000000  0.50000000
   0.49999994  0.12530035  0.61532896
   0.24995161  0.25002646  0.62220999
   0.25000298  0.12517350  0.74361727
   0.49999974  0.24971124  0.73073561
   0.25000000  0.37500000  0.26482347
   0.50000000  0.50000000  0.26482347
   0.50000000  0.37500000  0.38241173
   0.25000000  0.50000000  0.38241173
   0.25000000  0.37500000  0.50000000
   0.50000000  0.50000000  0.50000000
   0.49999994  0.37553498  0.61608951
   0.24989294  0.50004175  0.62209958
   0.24983346  0.37518750  0.74350839
   0.49999978  0.49911842  0.73216959
   0.75000000  0.75000000  0.21887923
   0.75000000  0.75000000  0.31076770
   0.09768032  0.62500000  0.26482347
   0.90231968  0.62500000  0.26482347
   0.00000000  0.75000000  0.33646749
   0.00000000  0.75000000  0.42835597
   0.84768032  0.62500000  0.38241173
   0.15231968  0.62500000  0.38241173
   0.75000000  0.75000000  0.45405576
   0.75000000  0.75000000  0.54594424
   0.09768032  0.62500000  0.50000000
   0.90231968  0.62500000  0.50000000
   0.99999977  0.75010379  0.57233954
   0.00000005  0.75004238  0.66485907
   0.84991878  0.62512726  0.61842946
   0.15008101  0.62512726  0.61842914
   0.75062593  0.75032696  0.69007478
   0.74941112  0.74986209  0.78307894
   0.09369955  0.62510842  0.74274633
   0.90629988  0.62510843  0.74274618
   0.75000000  0.00000000  0.21887923
   0.75000000  0.00000000  0.31076770
   0.09768032  0.87500000  0.26482347
   0.90231968  0.87500000  0.26482347
   0.00000000  0.00000000  0.33646749
   0.00000000  0.00000000  0.42835597
   0.84768032  0.87500000  0.38241173
   0.15231968  0.87500000  0.38241173
   0.75000000  0.00000000  0.45405576
   0.75000000  0.00000000  0.54594424
   0.09768032  0.87500000  0.50000000
   0.90231968  0.87500000  0.50000000
   0.99999977  0.00007222  0.57235480
   0.00000006  0.00003110  0.66489209
   0.84990327  0.87513036  0.61850370
   0.15009651  0.87513035  0.61850339
   0.75027396  0.00013252  0.69019934
   0.75022775  0.00011508  0.78321568
   0.09370565  0.87504846  0.74269931
   0.90629376  0.87504847  0.74269915
   0.75000000  0.25000000  0.21887923
   0.75000000  0.25000000  0.31076770
   0.09768032  0.12500000  0.26482347
   0.90231968  0.12500000  0.26482347
   0.00000000  0.25000000  0.33646749
   0.00000000  0.25000000  0.42835597
   0.84768032  0.12500000  0.38241173
   0.15231968  0.12500000  0.38241173
   0.75000000  0.25000000  0.45405576
   0.75000000  0.25000000  0.54594424
   0.09768032  0.12500000  0.50000000
   0.90231968  0.12500000  0.50000000
   0.99999976  0.24998470  0.57235425
   0.00000006  0.25012923  0.66488923
   0.84991379  0.12500568  0.61854635
   0.15008598  0.12500569  0.61854602
   0.75062261  0.24991397  0.69017110
   0.74996854  0.25030882  0.78316434
   0.09366369  0.12515339  0.74268007
   0.90633569  0.12515339  0.74267989
   0.75000000  0.50000000  0.21887923
   0.75000000  0.50000000  0.31076770
   0.09768032  0.37500000  0.26482347
   0.90231968  0.37500000  0.26482347
   0.00000000  0.50000000  0.33646749
   0.00000000  0.50000000  0.42835597
   0.84768032  0.37500000  0.38241173
   0.15231968  0.37500000  0.38241173
   0.75000000  0.50000000  0.45405576
   0.75000000  0.50000000  0.54594424
   0.09768032  0.37500000  0.50000000
   0.90231968  0.37500000  0.50000000
   0.99999975  0.50003891  0.57233737
   0.00000006  0.50008734  0.66483876
   0.84992054  0.37499290  0.61845651
   0.15007924  0.37499292  0.61845621
   0.75099186  0.50009892  0.69008217
   0.74849540  0.50049955  0.78300734
   0.09369654  0.37525887  0.74278009
   0.90630292  0.37525884  0.74278000
   0.25000000  0.75000000  0.21887923
   0.25000000  0.75000000  0.31076770
   0.59768032  0.62500000  0.26482347
   0.40231968  0.62500000  0.26482347
   0.50000000  0.75000000  0.33646749
   0.50000000  0.75000000  0.42835597
   0.34768032  0.62500000  0.38241173
   0.65231968  0.62500000  0.38241173
   0.25000000  0.75000000  0.45405576
   0.25000000  0.75000000  0.54594424
   0.59768032  0.62500000  0.50000000
   0.40231968  0.62500000  0.50000000
   0.49999977  0.74946102  0.57235367
   0.50000004  0.75066473  0.66456397
   0.34973869  0.62502971  0.61873549
   0.65026110  0.62502970  0.61873519
   0.24937317  0.75032693  0.69007477
   0.25058845  0.74986209  0.78307898
   0.59395529  0.62612857  0.74176743
   0.40604412  0.62612854  0.74176733
   0.25000000  0.00000000  0.21887923
   0.25000000  0.00000000  0.31076770
   0.59768032  0.87500000  0.26482347
   0.40231968  0.87500000  0.26482347
   0.50000000  0.00000000  0.33646749
   0.50000000  0.00000000  0.42835597
   0.34768032  0.87500000  0.38241173
   0.65231968  0.87500000  0.38241173
   0.25000000  0.00000000  0.45405576
   0.25000000  0.00000000  0.54594424
   0.59768032  0.87500000  0.50000000
   0.40231968  0.87500000  0.50000000
   0.49999977  0.00006551  0.57215751
   0.50000006  0.00017402  0.66451749
   0.34976675  0.87508151  0.61847972
   0.65023303  0.87508150  0.61847941
   0.24972503  0.00013251  0.69019932
   0.24977185  0.00011508  0.78321564
   0.59391952  0.87562168  0.74218710
   0.40607985  0.87562168  0.74218695
   0.25000000  0.25000000  0.21887923
   0.25000000  0.25000000  0.31076770
   0.59768032  0.12500000  0.26482347
   0.40231968  0.12500000  0.26482347
   0.50000000  0.25000000  0.33646749
   0.50000000  0.25000000  0.42835597
   0.34768032  0.12500000  0.38241173
   0.65231968  0.12500000  0.38241173
   0.25000000  0.25000000  0.45405576
   0.25000000  0.25000000  0.54594424
   0.59768032  0.12500000  0.50000000
   0.40231968  0.12500000  0.50000000
   0.49999977  0.25065206  0.57234867
   0.50000004  0.24942673  0.66461182
   0.34974789  0.12506796  0.61848352
   0.65025190  0.12506796  0.61848321
   0.24937646  0.24991401  0.69017107
   0.25003102  0.25030882  0.78316432
   0.59388020  0.12492642  0.74245463
   0.40611915  0.12492641  0.74245444
   0.25000000  0.50000000  0.21887923
   0.25000000  0.50000000  0.31076770
   0.59768032  0.37500000  0.26482347
   0.40231968  0.37500000  0.26482347
   0.50000000  0.50000000  0.33646749
   0.50000000  0.50000000  0.42835597
   0.34768032  0.37500000  0.38241173
   0.65231968  0.37500000  0.38241173
   0.25000000  0.50000000  0.45405576
   0.25000000  0.50000000  0.54594424
   0.59768032  0.37500000  0.50000000
   0.40231968  0.37500000  0.50000000
   0.49999978  0.50003926  0.57253817
   0.50000003  0.50004150  0.66539076
   0.34973760  0.37508378  0.61875860
   0.65026219  0.37508378  0.61875829
   0.24900729  0.50009894  0.69008217
   0.25150413  0.50049953  0.78300743
   0.59416802  0.37411833  0.74155829
   0.40583142  0.37411836  0.74155824

 position of ions in cartesian coordinates  (Angst):
   9.67012188  7.35119226  7.25944080
   0.00000000  8.82143071  7.25944080
   0.00000000  7.35119226 10.48281476
   9.67012188  8.82143071 10.48281476
   9.67012188  7.35119226 13.70618872
   0.00000000  8.82143071 13.70618872
  12.89349518  7.35201972 16.87545401
   9.67068947  8.82281046 17.05234523
   9.67209558  7.35508547 20.37114886
  12.89349280  8.82355885 20.03824916
   9.67012188 10.29166917  7.25944080
   0.00000000  0.00000000  7.25944080
   0.00000000 10.29166917 10.48281476
   9.67012188  0.00000000 10.48281476
   9.67012188 10.29166917 13.70618872
   0.00000000  0.00000000 13.70618872
  12.89349517 10.29256205 16.87624312
   9.67015503  0.00102788 17.05674279
   9.66935344 10.29424323 20.38413027
  12.89349269  0.00114916 20.03910527
   9.67012188  1.47023845  7.25944080
   0.00000000  2.94047690  7.25944080
   0.00000000  1.47023845 10.48281476
   9.67012188  2.94047690 10.48281476
   9.67012188  1.47023845 13.70618872
   0.00000000  2.94047690 13.70618872
  12.89349519  1.47061847 16.87680335
   9.67074348  2.94078813 17.05625536
   9.67007575  1.47227911 20.38431822
  12.89349288  2.94148957 20.03902873
   9.67012188  4.41071536  7.25944080
   0.00000000  5.88095381  7.25944080
   0.00000000  4.41071536 10.48281476
   9.67012188  5.88095381 10.48281476
   9.67012188  4.41071536 13.70618872
   0.00000000  5.88095381 13.70618872
  12.89349536  4.41101577 16.87558683
   9.67150001  5.88144477 17.05322819
   9.67226206  4.41292017 20.38133202
  12.89349287  5.88270493 20.03768285
   3.22337396  7.35119226  7.25944080
   6.44674792  8.82143071  7.25944080
   6.44674792  7.35119226 10.48281476
   3.22337396  8.82143071 10.48281476
   3.22337396  7.35119226 13.70618872
   6.44674792  8.82143071 13.70618872
   6.44674724  7.34580244 16.88906509
   3.22280396  8.82281045 17.05234539
   3.22139314  7.35508518 20.37115050
   6.44674463  8.83243440 20.02875884
   3.22337396 10.29166917  7.25944080
   6.44674792  0.00000000  7.25944080
   6.44674792 10.29166917 10.48281476
   3.22337396  0.00000000 10.48281476
   3.22337396 10.29166917 13.70618872
   6.44674792  0.00000000 13.70618872
   6.44674721 10.28988219 16.86707725
   3.22333823  0.00102784 17.05674243
   3.22413484 10.29424281 20.38413023
   6.44674475  0.00275384 20.02863643
   3.22337396  1.47023845  7.25944080
   6.44674792  2.94047690  7.25944080
   6.44674792  1.47023845 10.48281476
   3.22337396  2.94047690 10.48281476
   3.22337396  1.47023845 13.70618872
   6.44674792  2.94047690 13.70618872
   6.44674720  1.47377117 16.86762979
   3.22274998  2.94078816 17.05625503
   3.22341242  1.47227916 20.38431723
   6.44674459  2.93708055 20.03120030
   3.22337396  4.41071536  7.25944080
   6.44674792  5.88095381  7.25944080
   6.44674792  4.41071536 10.48281476
   3.22337396  5.88095381 10.48281476
   3.22337396  4.41071536 13.70618872
   6.44674792  5.88095381 13.70618872
   6.44674719  4.41700774 16.88847810
   3.22199363  5.88144492 17.05322842
   3.22122672  4.41292067 20.38133275
   6.44674504  5.87058471 20.07050929
   9.67012188  8.82143071  6.00000000
   9.67012188  8.82143071  8.51888160
   1.25944080  7.35119226  7.25944080
  11.63405505  7.35119226  7.25944080
   0.00000000  8.82143071  9.22337396
   0.00000000  8.82143071 11.74225556
  10.92956268  7.35119226 10.48281476
   1.96393316  7.35119226 10.48281476
   9.67012188  8.82143071 12.44674792
   9.67012188  8.82143071 14.96562952
   1.25944080  7.35119226 13.70618872
  11.63405505  7.35119226 13.70618872
  12.89349288  8.82265149 15.68918759
   0.00000065  8.82192915 18.22536790
  10.95842425  7.35268912 16.95262167
   1.93506886  7.35268904 16.95261314
   9.67819228  8.82527644 18.91659024
   9.66252919  8.81980859 21.46605542
   1.20811473  7.35246750 20.36044285
  11.68537370  7.35246760 20.36043869
   9.67012188  0.00000000  6.00000000
   9.67012188  0.00000000  8.51888160
   1.25944080 10.29166917  7.25944080
  11.63405505 10.29166917  7.25944080
   0.00000000  0.00000000  9.22337396
   0.00000000  0.00000000 11.74225556
  10.92956268 10.29166917 10.48281476
   1.96393316 10.29166917 10.48281476
   9.67012188  0.00000000 12.44674792
   9.67012188  0.00000000 14.96562952
   1.25944080 10.29166917 13.70618872
  11.63405505 10.29166917 13.70618872
  12.89349284  0.00084945 15.68960576
   0.00000077  0.00036581 18.22627291
  10.95822428 10.29320249 16.95465689
   1.93526870 10.29320229 16.95464826
   9.67365425  0.00155870 18.92000491
   9.67305842  0.00135351 21.46980373
   1.20819336 10.29223912 20.35915384
  11.68529481 10.29223929 20.35914949
   9.67012188  2.94047690  6.00000000
   9.67012188  2.94047690  8.51888160
   1.25944080  1.47023845  7.25944080
  11.63405505  1.47023845  7.25944080
   0.00000000  2.94047690  9.22337396
   0.00000000  2.94047690 11.74225556
  10.92956268  1.47023845 10.48281476
   1.96393316  1.47023845 10.48281476
   9.67012188  2.94047690 12.44674792
   9.67012188  2.94047690 14.96562952
   1.25944080  1.47023845 13.70618872
  11.63405505  1.47023845 13.70618872
  12.89349279  2.94029697 15.68959086
   0.00000082  2.94199684 18.22619448
  10.95835992  1.47030530 16.95582610
   1.93513300  1.47030537 16.95581708
   9.67814955  2.93946504 18.91923067
   9.66971629  2.94410927 21.46839640
   1.20765240  1.47204259 20.35862640
  11.68583550  1.47204256 20.35862137
   9.67012188  5.88095381  6.00000000
   9.67012188  5.88095381  8.51888160
   1.25944080  4.41071536  7.25944080
  11.63405505  4.41071536  7.25944080
   0.00000000  5.88095381  9.22337396
   0.00000000  5.88095381 11.74225556
  10.92956268  4.41071536 10.48281476
   1.96393316  4.41071536 10.48281476
   9.67012188  5.88095381 12.44674792
   9.67012188  5.88095381 14.96562952
   1.25944080  4.41071536 13.70618872
  11.63405505  4.41071536 13.70618872
  12.89349264  5.88141142 15.68912799
   0.00000077  5.88198115 18.22481116
  10.95844700  4.41063182 16.95336338
   1.93504610  4.41063211 16.95335501
   9.68291046  5.88211730 18.91679291
   9.65072239  5.88682942 21.46409281
   1.20807589  4.41376010 20.36136828
  11.68541292  4.41375983 20.36136577
   3.22337396  8.82143071  6.00000000
   3.22337396  8.82143071  8.51888160
   7.70618872  7.35119226  7.25944080
   5.18730713  7.35119226  7.25944080
   6.44674792  8.82143071  9.22337396
   6.44674792  8.82143071 11.74225556
   4.48281476  7.35119226 10.48281476
   8.41068109  7.35119226 10.48281476
   3.22337396  8.82143071 12.44674792
   3.22337396  8.82143071 14.96562952
   7.70618872  7.35119226 13.70618872
   5.18730713  7.35119226 13.70618872
   6.44674497  8.81509129 15.68957479
   6.44674848  8.82924920 18.21727829
   4.50935437  7.35154168 16.96101066
   8.38413874  7.35154159 16.96100257
   3.21529187  8.82527604 18.91659018
   3.23096117  8.81980863 21.46605665
   7.65816008  7.36446634 20.33360882
   5.23532815  7.36446608 20.33360605
   3.22337396  0.00000000  6.00000000
   3.22337396  0.00000000  8.51888160
   7.70618872 10.29166917  7.25944080
   5.18730713 10.29166917  7.25944080
   6.44674792  0.00000000  9.22337396
   6.44674792  0.00000000 11.74225556
   4.48281476 10.29166917 10.48281476
   8.41068109 10.29166917 10.48281476
   3.22337396  0.00000000 12.44674792
   3.22337396  0.00000000 14.96562952
   7.70618872 10.29166917 13.70618872
   5.18730713 10.29166917 13.70618872
   6.44674496  0.00077051 15.68419766
   6.44674864  0.00204677 18.21600436
   4.50971619 10.29262788 16.95399962
   8.38377684 10.29262781 16.95399110
   3.21982868  0.00155857 18.92000427
   3.22043227  0.00135358 21.46980271
   7.65769890 10.29898130 20.34511291
   5.23578891 10.29898135 20.34510875
   3.22337396  2.94047690  6.00000000
   3.22337396  2.94047690  8.51888160
   7.70618872  1.47023845  7.25944080
   5.18730713  1.47023845  7.25944080
   6.44674792  2.94047690  9.22337396
   6.44674792  2.94047690 11.74225556
   4.48281476  1.47023845 10.48281476
   8.41068109  1.47023845 10.48281476
   3.22337396  2.94047690 12.44674792
   3.22337396  2.94047690 14.96562952
   7.70618872  1.47023845 13.70618872
   5.18730713  1.47023845 13.70618872
   6.44674502  2.94814638 15.68943787
   6.44674845  2.93373413 18.21859001
   4.50947291  1.47103774 16.95410356
   8.38402014  1.47103781 16.95409512
   3.21533436  2.93946545 18.91922988
   3.22377392  2.94410917 21.46839592
   7.65719189  1.46937300 20.35244656
   5.23629556  1.46937286 20.35244122
   3.22337396  5.88095381  6.00000000
   3.22337396  5.88095381  8.51888160
   7.70618872  4.41071536  7.25944080
   5.18730713  4.41071536  7.25944080
   6.44674792  5.88095381  9.22337396
   6.44674792  5.88095381 11.74225556
   4.48281476  4.41071536 10.48281476
   8.41068109  4.41071536 10.48281476
   3.22337396  5.88095381 12.44674792
   3.22337396  5.88095381 14.96562952
   7.70618872  4.41071536 13.70618872
   5.18730713  4.41071536 13.70618872
   6.44674503  5.88141560 15.69463249
   6.44674827  5.88144194 18.23994253
   4.50934030  4.41170080 16.96164416
   8.38415286  4.41170078 16.96163593
   3.21057443  5.88211748 18.91679288
   3.24276740  5.88682928 21.46409516
   7.66090287  4.40034527 20.32787562
   5.23258576  4.40034554 20.32787424



--------------------------------------------------------------------------------------------------------

--------------------------------------- Iteration      FINAL  ---------------------------------------


--------------------OUTCAR has been truncated-------------------------


--------------------OUTCAR has been truncated-------------------------


--------------------OUTCAR has been truncated-------------------------


--------------------OUTCAR has been truncated-------------------------


--------------------OUTCAR has been truncated-------------------------


--------------------OUTCAR has been truncated-------------------------


--------------------OUTCAR has been truncated-------------------------


--------------------OUTCAR has been truncated-------------------------


--------------------OUTCAR has been truncated-------------------------


--------------------OUTCAR has been truncated-------------------------



  FORCE on cell =-STRESS in cart. coord.  units (eV):
  Direction    XX          YY          ZZ          XY          YZ          ZX
  --------------------------------------------------------------------------------------
  Alpha Z  5262.29755  5262.29755  5262.29755
  Ewald  679057.13463697073.54148************    -0.00004    -2.51630    -0.00240
  Hartree721167.02148730980.82979************     0.00007    -1.39914    -0.00085
  E(xc)   -8633.16098 -8605.27607 -8648.20597     0.00000    -0.00709    -0.00001
  Local  ************************************    -0.00010     3.90234     0.00316
  n-local -5324.17565 -5242.20400 -5373.26290    -0.00010    -0.06840    -0.00016
  augment  5212.39458  5199.50417  5215.38947     0.00001     0.00199    -0.00002
  Kinetic 28717.85434 28230.81487 28759.93994     0.00008    -0.07315     0.00030
  Fock        0.00000     0.00000     0.00000     0.00000     0.00000     0.00000
  vdW      -135.06204  -135.51397  -121.19326     0.00000    -0.00065    -0.00000
  -------------------------------------------------------------------------------------
  Total      97.69105    57.29027    30.27307    -0.00008    -0.16039     0.00001
  in kB      37.65045    22.07986    11.66734    -0.00003    -0.06182     0.00001
  external pressure =       23.80 kB  Pullay stress =        0.00 kB


 VOLUME and BASIS-vectors are now :
 -----------------------------------------------------------------------------
  energy-cutoff  :      600.00
  volume of cell :     4157.14
      direct lattice vectors                 reciprocal lattice vectors
    12.893495846  0.000000000  0.000000000     0.077558485  0.000000000  0.000000000
     0.000000000 11.761907618  0.000000000     0.000000000  0.085020222  0.000000000
     0.000000000  0.000000000 27.412377441     0.000000000  0.000000000  0.036479871

  length of vectors
    12.893495846 11.761907618 27.412377441     0.077558485  0.085020222  0.036479871


 FORCES acting on ions:
    Electron-Ion                     Ewald-Force                    Non-Local-Force
 -----------------------------------------------------------------------------------------------
   0.221E-01 0.129E-01 0.338E+04   -.222E-01 -.130E-01 -.338E+04   0.161E-04 -.303E-04 0.452E+00
   -.189E-04 0.104E-01 0.356E+04   -.699E-06 -.102E-01 -.355E+04   -.518E-05 -.147E-04 -.403E+01
   -.574E-04 0.349E-01 0.172E+04   -.110E-05 -.348E-01 -.172E+04   -.594E-05 0.218E-04 -.407E-01
   0.760E-01 0.754E-01 0.171E+04   -.764E-01 -.745E-01 -.171E+04   0.894E-04 0.878E-05 0.210E+00
   0.719E+00 0.316E+00 -.254E+02   -.722E+00 -.317E+00 0.261E+02   0.257E-03 0.131E-03 -.127E+00
   -.121E-03 0.396E-01 -.140E+02   0.132E-03 -.340E-01 0.130E+02   0.892E-05 -.216E-02 0.317E+00
   0.468E-03 0.101E+00 -.170E+04   -.472E-03 -.972E-01 0.170E+04   0.447E-05 -.188E-02 0.126E-01
   0.933E+00 0.333E+00 -.175E+04   -.917E+00 -.325E+00 0.175E+04   -.929E-02 -.525E-02 -.110E+00
   -.518E+00 0.155E+01 -.335E+04   0.475E+00 -.154E+01 0.335E+04   0.331E-01 -.191E-02 -.226E+00
   0.583E-03 0.855E+00 -.339E+04   -.564E-03 -.863E+00 0.339E+04   -.961E-05 -.115E-04 0.101E+01
   0.148E-01 0.954E-02 0.338E+04   -.151E-01 -.892E-02 -.338E+04   0.686E-04 -.564E-04 0.451E+00
   -.930E-04 -.316E-02 0.356E+04   -.796E-06 0.318E-02 -.355E+04   -.162E-04 -.115E-04 -.403E+01
   -.513E-05 0.108E-02 0.172E+04   -.257E-05 -.901E-03 -.172E+04   0.302E-05 0.710E-04 -.409E-01
   0.201E-01 -.212E-01 0.171E+04   -.211E-01 0.216E-01 -.171E+04   0.223E-03 0.201E-04 0.209E+00
   0.530E-01 0.960E-01 -.251E+02   -.535E-01 -.744E-01 0.259E+02   0.179E-03 -.137E-02 -.130E+00
   -.123E-03 -.846E-01 -.142E+02   0.116E-03 0.888E-01 0.133E+02   0.880E-05 -.152E-02 0.317E+00
   0.559E-03 -.617E-01 -.170E+04   -.563E-03 0.588E-01 0.170E+04   0.227E-05 -.134E-02 0.120E-01
   0.353E+00 -.535E-02 -.175E+04   -.345E+00 -.247E-02 0.175E+04   -.391E-02 0.629E-03 -.100E+00
   0.919E-01 0.105E+01 -.335E+04   -.529E-01 -.110E+01 0.335E+04   -.185E-04 -.380E-02 -.212E+00
   0.539E-03 0.266E+00 -.339E+04   -.546E-03 -.281E+00 0.339E+04   0.180E-04 0.196E-02 0.102E+01
   0.144E-01 -.133E-01 0.338E+04   -.146E-01 0.130E-01 -.338E+04   0.430E-04 -.284E-05 0.451E+00
   -.210E-04 -.104E-01 0.356E+04   -.773E-06 0.102E-01 -.355E+04   -.198E-05 0.867E-05 -.403E+01
   -.150E-04 -.345E-01 0.172E+04   -.338E-05 0.345E-01 -.172E+04   0.784E-05 0.132E-04 -.411E-01
   0.694E-01 -.751E-01 0.171E+04   -.699E-01 0.741E-01 -.171E+04   0.102E-03 -.143E-04 0.209E+00
   0.107E-01 -.301E+00 -.253E+02   -.114E-01 0.297E+00 0.261E+02   0.333E-03 0.273E-03 -.132E+00
   -.999E-04 0.786E-02 -.142E+02   0.125E-03 -.130E-01 0.133E+02   0.144E-04 0.106E-02 0.318E+00
   0.535E-03 -.199E+00 -.170E+04   -.613E-03 0.195E+00 0.170E+04   0.264E-05 0.229E-02 0.169E-01
   0.695E+00 -.315E+00 -.175E+04   -.676E+00 0.308E+00 0.175E+04   -.890E-02 0.399E-02 -.104E+00
   0.769E+00 0.673E-01 -.335E+04   -.724E+00 -.825E-01 0.335E+04   -.107E-01 0.642E-03 -.210E+00
   0.564E-03 -.142E+01 -.339E+04   -.597E-03 0.142E+01 0.339E+04   -.165E-04 0.174E-02 0.101E+01
   0.216E-01 -.930E-02 0.338E+04   -.217E-01 0.892E-02 -.338E+04   -.385E-04 0.544E-04 0.451E+00
   -.462E-04 0.318E-02 0.356E+04   -.675E-06 -.317E-02 -.355E+04   -.159E-04 -.879E-05 -.403E+01
   0.114E-04 -.158E-02 0.172E+04   -.182E-05 0.130E-02 -.172E+04   0.180E-05 -.123E-04 -.409E-01
   0.125E+00 0.209E-01 0.171E+04   -.125E+00 -.212E-01 -.171E+04   -.102E-03 -.733E-04 0.210E+00
   0.673E+00 -.116E+00 -.256E+02   -.676E+00 0.989E-01 0.264E+02   0.118E-03 0.132E-02 -.129E+00
   -.164E-03 0.138E+00 -.140E+02   0.155E-03 -.140E+00 0.130E+02   0.600E-05 -.287E-03 0.317E+00
   0.540E-03 0.428E-01 -.170E+04   -.558E-03 -.396E-01 0.170E+04   0.286E-05 0.122E-02 0.130E-01
   0.141E+01 0.744E-01 -.175E+04   -.139E+01 -.683E-01 0.175E+04   -.110E-01 0.847E-03 -.115E+00
   -.954E+00 -.165E+01 -.335E+04   0.109E+01 0.169E+01 0.335E+04   -.246E-01 0.827E-02 -.202E+00
   0.776E-03 -.205E+00 -.339E+04   -.676E-03 0.223E+00 0.339E+04   0.230E-04 0.117E-02 0.996E+00
   -.221E-01 0.131E-01 0.338E+04   0.222E-01 -.130E-01 -.338E+04   0.217E-04 -.162E-04 0.452E+00
   -.296E-04 0.216E-01 0.356E+04   0.682E-06 -.212E-01 -.355E+04   0.174E-04 -.434E-04 -.403E+01
   0.305E-05 0.117E+00 0.172E+04   0.149E-05 -.111E+00 -.172E+04   0.884E-05 -.115E-02 -.407E-01
   -.760E-01 0.754E-01 0.171E+04   0.764E-01 -.745E-01 -.171E+04   -.932E-04 0.254E-05 0.210E+00
   -.719E+00 0.316E+00 -.254E+02   0.722E+00 -.317E+00 0.261E+02   -.251E-03 0.125E-03 -.127E+00
   -.145E-03 0.861E+00 -.148E+02   0.143E-03 -.882E+00 0.138E+02   0.819E-05 0.151E-01 0.306E+00
   0.490E-03 0.811E+00 -.170E+04   -.465E-03 -.706E+00 0.170E+04   0.289E-05 -.497E-01 0.378E-01
   -.934E+00 0.333E+00 -.175E+04   0.918E+00 -.326E+00 0.175E+04   0.929E-02 -.525E-02 -.110E+00
   0.518E+00 0.155E+01 -.335E+04   -.474E+00 -.154E+01 0.335E+04   -.331E-01 -.193E-02 -.226E+00
   0.633E-03 0.255E+01 -.339E+04   -.632E-03 -.277E+01 0.339E+04   -.164E-05 0.419E-01 0.109E+01
   -.148E-01 0.933E-02 0.338E+04   0.151E-01 -.892E-02 -.338E+04   -.954E-04 -.435E-04 0.451E+00
   -.163E-04 -.240E-02 0.356E+04   0.769E-06 0.250E-02 -.355E+04   -.227E-04 0.115E-04 -.403E+01
[...]
      9.67008      1.47228     20.38432         0.032764     -0.013545      0.179497
     12.89349      2.94149     20.03903        -0.000048      0.000607     -0.103765
      9.67012      4.41072      7.25944        -0.000090     -0.000351     -3.482421
      0.00000      5.88095      7.25944        -0.000062     -0.000023      2.636326
      0.00000      4.41072     10.48281         0.000012     -0.000300      0.563875
      9.67012      5.88095     10.48281         0.000050     -0.000389     -0.729284
      9.67012      4.41072     13.70619        -0.002412     -0.015659      0.658186
      0.00000      5.88095     13.70619        -0.000002     -0.002361     -0.658601
     12.89350      4.41102     16.87559        -0.000013      0.004199     -0.100827
      9.67150      5.88144     17.05323         0.014363      0.006476      0.036030
      9.67226      4.41292     20.38133         0.108565      0.050549      0.199373
     12.89349      5.88270     20.03768         0.000126      0.017746     -0.097182
      3.22337      7.35119      7.25944         0.000092      0.000092     -3.482685
      6.44675      8.82143      7.25944        -0.000011      0.000318      2.636693
      6.44675      7.35119     10.48281         0.000015      0.004788      0.562985
      3.22337      8.82143     10.48281         0.000306      0.000932     -0.729404
      3.22337      7.35119     13.70619         0.002255     -0.000495      0.647429
      6.44675      8.82143     13.70619         0.000007     -0.006747     -0.633808
      6.44675      7.34580     16.88907         0.000031      0.055408     -0.135715
      3.22280      8.82281     17.05235        -0.007497      0.003345      0.039239
      3.22139      7.35509     20.37115         0.014055      0.008071      0.254437
      6.44674      8.83243     20.02876         0.000002     -0.178967     -0.118195
      3.22337     10.29167      7.25944         0.000131      0.000353     -3.482538
      6.44675      0.00000      7.25944        -0.000037      0.000094      2.637035
      6.44675     10.29167     10.48281         0.000036      0.003073      0.567041
      3.22337      0.00000     10.48281         0.000709      0.000392     -0.727019
      3.22337     10.29167     13.70619         0.000378      0.020174      0.660015
      6.44675      0.00000     13.70619        -0.000016      0.002872     -0.691321
      6.44675     10.28988     16.86708        -0.000002     -0.001626     -0.110996
      3.22334      0.00103     17.05674        -0.004311     -0.006894      0.030990
      3.22413     10.29424     20.38413        -0.035668     -0.044953      0.194350
      6.44674      0.00275     20.02864        -0.000066     -0.006762     -0.151645
      3.22337      1.47024      7.25944         0.000095     -0.000259     -3.482256
      6.44675      2.94048      7.25944         0.000017     -0.000276      2.636642
      6.44675      1.47024     10.48281        -0.000028     -0.002780      0.567160
      3.22337      2.94048     10.48281         0.000325     -0.000991     -0.727088
      3.22337      1.47024     13.70619         0.000467     -0.004243      0.671019
      6.44675      2.94048     13.70619        -0.000039      0.005807     -0.638951
      6.44675      1.47377     16.86763         0.000024     -0.023084     -0.126010
      3.22275      2.94079     17.05626        -0.010709     -0.002954      0.023781
      3.22341      1.47228     20.38432        -0.032782     -0.013459      0.179410
      6.44674      2.93708     20.03120         0.000051     -0.147004     -0.199625
      3.22337      4.41072      7.25944         0.000052     -0.000360     -3.482453
      6.44675      5.88095      7.25944         0.000098     -0.000007      2.635989
      6.44675      4.41072     10.48281        -0.000021     -0.005111      0.563090
      3.22337      5.88095     10.48281        -0.000015     -0.000429     -0.729362
      3.22337      4.41072     13.70619         0.002390     -0.015627      0.658261
      6.44675      5.88095     13.70619        -0.000041     -0.002153     -0.633432
      6.44675      4.41701     16.88848         0.000008     -0.031242     -0.155291
      3.22199      5.88144     17.05323        -0.014315      0.006467      0.036039
      3.22123      4.41292     20.38133        -0.108582      0.050598      0.199425
      6.44675      5.87058     20.07051         0.000051      0.381160     -0.634865
      9.67012      8.82143      6.00000        -0.000031     -0.000105      1.429866
      9.67012      8.82143      8.51888         0.000059     -0.000212      1.977094
      1.25944      7.35119      7.25944        -1.658978     -0.000029     -0.780406
     11.63406      7.35119      7.25944         1.658955     -0.000087     -0.780375
      0.00000      8.82143      9.22337        -0.000005     -0.000092     -1.586284
      0.00000      8.82143     11.74226        -0.000008     -0.000144      0.061409
     10.92956      7.35119     10.48281         0.633831     -0.000102      0.051675
      1.96393      7.35119     10.48281        -0.633838     -0.000100      0.051688
      9.67012      8.82143     12.44675         0.000182     -0.003899     -0.285145
      9.67012      8.82143     14.96563        -0.001516     -0.003447      0.357267
      1.25944      7.35119     13.70619        -0.268547      0.000652      0.090470
     11.63406      7.35119     13.70619         0.268521      0.000651      0.090475
     12.89349      8.82265     15.68919         0.000004      0.000678     -0.075020
      0.00000      8.82193     18.22537         0.000005     -0.000238      0.266386
     10.95842      7.35269     16.95262         0.087503     -0.002679     -0.018459
      1.93507      7.35269     16.95261        -0.087519     -0.002666     -0.018427
      9.67819      8.82528     18.91659        -0.006135      0.005452     -0.167900
      9.66253      8.81981     21.46606         0.014618      0.045421      0.192551
      1.20811      7.35247     20.36044         0.162018     -0.003668      0.040006
     11.68537      7.35247     20.36044        -0.162058     -0.003671      0.039997
      9.67012      0.00000      6.00000         0.000021     -0.000076      1.429835
      9.67012      0.00000      8.51888         0.000122     -0.000095      1.976253
      1.25944     10.29167      7.25944        -1.659044     -0.000016     -0.780411
     11.63406     10.29167      7.25944         1.659069      0.000043     -0.780395
      0.00000      0.00000      9.22337        -0.000010     -0.000083     -1.586288
      0.00000      0.00000     11.74226        -0.000002     -0.000080      0.061779
     10.92956     10.29167     10.48281         0.633990     -0.000561      0.051587
      1.96393     10.29167     10.48281        -0.633988     -0.000554      0.051593
      9.67012      0.00000     12.44675        -0.000174     -0.003084     -0.289489
      9.67012      0.00000     14.96563         0.001933      0.000252      0.346493
      1.25944     10.29167     13.70619        -0.271043     -0.000696      0.089339
     11.63406     10.29167     13.70619         0.271014     -0.000688      0.089343
     12.89349      0.00085     15.68961        -0.000012      0.002539     -0.073740
      0.00000      0.00037     18.22627        -0.000012      0.002517      0.268401
     10.95822     10.29320     16.95466         0.088482      0.000861     -0.018060
      1.93527     10.29320     16.95465        -0.088456      0.000838     -0.018039
      9.67365      0.00156     18.92000        -0.006861      0.007642     -0.160311
      9.67306      0.00135     21.46980        -0.012150      0.016613      0.231335
      1.20819     10.29224     20.35915         0.169082      0.006847      0.040391
     11.68529     10.29224     20.35915        -0.169095      0.006902      0.040379
      9.67012      2.94048      6.00000         0.000029      0.000137      1.429788
      9.67012      2.94048      8.51888         0.000062      0.000198      1.976470
      1.25944      1.47024      7.25944        -1.659012     -0.000029     -0.780447
     11.63406      1.47024      7.25944         1.659080     -0.000026     -0.780447
      0.00000      2.94048      9.22337        -0.000003      0.000093     -1.586201
      0.00000      2.94048     11.74226        -0.000013      0.000328      0.061971
     10.92956      1.47024     10.48281         0.634092      0.000091      0.051488
      1.96393      1.47024     10.48281        -0.634098      0.000114      0.051491
      9.67012      2.94048     12.44675         0.000216      0.004107     -0.289492
      9.67012      2.94048     14.96563        -0.000802      0.006999      0.356197
      1.25944      1.47024     13.70619        -0.273788      0.000968      0.088613
     11.63406      1.47024     13.70619         0.273771      0.000968      0.088609
     12.89349      2.94030     15.68959        -0.000003     -0.000186     -0.074173
      0.00000      2.94200     18.22619         0.000001      0.000774      0.273639
     10.95836      1.47031     16.95583         0.087546      0.003777     -0.017941
      1.93513      1.47031     16.95582        -0.087537      0.003783     -0.017897
      9.67815      2.93947     18.91923        -0.013264      0.001419     -0.155128
      9.66972      2.94411     21.46840        -0.017777     -0.002678      0.233131
      1.20765      1.47204     20.35863         0.177525      0.003825      0.043691
     11.68584      1.47204     20.35862        -0.177529      0.003826      0.043684
      9.67012      5.88095      6.00000         0.000031      0.000041      1.429904
      9.67012      5.88095      8.51888         0.000011      0.000096      1.977094
      1.25944      4.41072      7.25944        -1.659008      0.000062     -0.780394
     11.63406      4.41072      7.25944         1.659032      0.000054     -0.780400
      0.00000      5.88095      9.22337        -0.000020      0.000049     -1.586294
      0.00000      5.88095     11.74226        -0.000004      0.000314      0.061583
     10.92956      4.41072     10.48281         0.633965      0.000529      0.051583
      1.96393      4.41072     10.48281        -0.633947      0.000498      0.051598
      9.67012      5.88095     12.44675         0.000762      0.003338     -0.285380
      9.67012      5.88095     14.96563        -0.003867      0.002871      0.363080
      1.25944      4.41072     13.70619        -0.271495      0.001573      0.090155
     11.63406      4.41072     13.70619         0.271494      0.001576      0.090152
     12.89349      5.88141     15.68913        -0.000001     -0.002022     -0.075283
      0.00000      5.88198     18.22481        -0.000001     -0.001998      0.272672
     10.95845      4.41063     16.95336         0.086523     -0.001731     -0.018306
      1.93505      4.41063     16.95336        -0.086504     -0.001726     -0.018286
      9.68291      5.88212     18.91679        -0.009342     -0.014872     -0.170377
      9.65072      5.88683     21.46409         0.010120     -0.066534      0.188006
      1.20808      4.41376     20.36137         0.176049     -0.006689      0.043033
     11.68541      4.41376     20.36137        -0.176035     -0.006701      0.043025
      3.22337      8.82143      6.00000         0.000010     -0.000137      1.429904
      3.22337      8.82143      8.51888        -0.000063     -0.000223      1.977052
      7.70619      7.35119      7.25944        -1.658917     -0.000227     -0.780515
      5.18731      7.35119      7.25944         1.658917     -0.000165     -0.780575
      6.44675      8.82143      9.22337        -0.000006     -0.001209     -1.586990
      6.44675      8.82143     11.74226        -0.000001     -0.002707      0.057481
      4.48281      7.35119     10.48281         0.633874     -0.000349      0.051713
      8.41068      7.35119     10.48281        -0.633853     -0.000327      0.051702
      3.22337      8.82143     12.44675        -0.000191     -0.003877     -0.285123
      3.22337      8.82143     14.96563         0.001543     -0.003429      0.357276
      7.70619      7.35119     13.70619        -0.267362     -0.011514      0.087948
      5.18731      7.35119     13.70619         0.267364     -0.011513      0.087948
      6.44674      8.81509     15.68957        -0.000005     -0.007045     -0.070473
      6.44675      8.82925     18.21728        -0.000008      0.001815      0.292275
      4.50935      7.35154     16.96101         0.108009     -0.005700     -0.019195
      8.38414      7.35154     16.96100        -0.108021     -0.005696     -0.019151
      3.21529      8.82528     18.91659         0.006137      0.005462     -0.167901
      3.23096      8.81981     21.46606        -0.014619      0.045430      0.192518
      7.65816      7.36447     20.33361         0.071391     -0.143909      0.125344
      5.23533      7.36447     20.33361        -0.071393     -0.143912      0.125350
      3.22337      0.00000      6.00000         0.000006     -0.000057      1.429837
      3.22337      0.00000      8.51888        -0.000060     -0.000052      1.976324
      7.70619     10.29167      7.25944        -1.658921     -0.000142     -0.780539
      5.18731     10.29167      7.25944         1.658928     -0.000171     -0.780560
      6.44675      0.00000      9.22337        -0.000009     -0.000068     -1.588040
      6.44675      0.00000     11.74226         0.000005     -0.000095      0.048789
      4.48281     10.29167     10.48281         0.632919     -0.000676      0.051456
      8.41068     10.29167     10.48281        -0.632916     -0.000685      0.051435
      3.22337      0.00000     12.44675         0.000172     -0.003099     -0.289493
      3.22337      0.00000     14.96563        -0.001920      0.000233      0.346522
      7.70619     10.29167     13.70619        -0.268107     -0.007581      0.091429
      5.18731     10.29167     13.70619         0.268135     -0.007593      0.091403
      6.44674      0.00077     15.68420         0.000013      0.006704     -0.063161
      6.44675      0.00205     18.21600         0.000009      0.003815      0.314440
      4.50972     10.29263     16.95400         0.098265      0.002169     -0.017326
      8.38378     10.29263     16.95399        -0.098271      0.002178     -0.017309
      3.21983      0.00156     18.92000         0.006867      0.007658     -0.160314
      3.22043      0.00135     21.46980         0.012163      0.016618      0.231368
      7.65770     10.29898     20.34511         0.143049      0.006386      0.067880
      5.23579     10.29898     20.34511        -0.143059      0.006400      0.067869
      3.22337      2.94048      6.00000         0.000024      0.000107      1.429785
      3.22337      2.94048      8.51888        -0.000054      0.000178      1.976486
      7.70619      1.47024      7.25944        -1.658910      0.000082     -0.780541
      5.18731      1.47024      7.25944         1.658897      0.000073     -0.780526
      6.44675      2.94048      9.22337         0.000021      0.001187     -1.586944
      6.44675      2.94048     11.74226         0.000010      0.002968      0.057545
      4.48281      1.47024     10.48281         0.633012      0.000226      0.051340
      8.41068      1.47024     10.48281        -0.633000      0.000227      0.051350
      3.22337      2.94048     12.44675        -0.000194      0.004142     -0.289523
      3.22337      2.94048     14.96563         0.000816      0.007023      0.356205
      7.70619      1.47024     13.70619        -0.270813      0.007672      0.090604
      5.18731      1.47024     13.70619         0.270822      0.007669      0.090577
      6.44675      2.94815     15.68944         0.000002      0.005225     -0.061792
      6.44675      2.93373     18.21859        -0.000006      0.010398      0.349447
      4.50947      1.47104     16.95410         0.102177      0.004029     -0.014806
      8.38402      1.47104     16.95410        -0.102180      0.004016     -0.014794
      3.21533      2.93947     18.91923         0.013280      0.001446     -0.155111
      3.22377      2.94411     21.46840         0.017796     -0.002641      0.233142
      7.65719      1.46937     20.35245         0.140323      0.029624      0.045375
      5.23630      1.46937     20.35244        -0.140342      0.029600      0.045330
      3.22337      5.88095      6.00000        -0.000021      0.000049      1.429843
      3.22337      5.88095      8.51888        -0.000004      0.000059      1.977102
      7.70619      4.41072      7.25944        -1.658937      0.000211     -0.780555
      5.18731      4.41072      7.25944         1.658942      0.000177     -0.780535
      6.44675      5.88095      9.22337         0.000025      0.000090     -1.585592
      6.44675      5.88095     11.74226        -0.000006      0.000311      0.074702
      4.48281      4.41072     10.48281         0.633963      0.000738      0.051572
      8.41068      4.41072     10.48281        -0.633965      0.000746      0.051592
      3.22337      5.88095     12.44675        -0.000764      0.003331     -0.285324
      3.22337      5.88095     14.96563         0.003879      0.002853      0.363059
      7.70619      4.41072     13.70619        -0.269746      0.014131      0.087152
      5.18731      4.41072     13.70619         0.269771      0.014129      0.087151
      6.44675      5.88142     15.69463        -0.000002     -0.005733     -0.058829
      6.44675      5.88144     18.23994        -0.000006     -0.022431      0.413987
      4.50934      4.41170     16.96164         0.110206     -0.000648     -0.016376
      8.38415      4.41170     16.96164        -0.110222     -0.000661     -0.016365
      3.21057      5.88212     18.91679         0.009348     -0.014878     -0.170357
      3.24277      5.88683     21.46410        -0.010115     -0.066532      0.187956
      7.66090      4.40035     20.32788         0.090588      0.081519      0.185819
      5.23259      4.40035     20.32787        -0.090597      0.081529      0.185848
 -----------------------------------------------------------------------------------
    total drift:                               -0.000270      0.003558     -0.205957


--------------------------------------------------------------------------------------------------------



  FREE ENERGIE OF THE ION-ELECTRON SYSTEM (eV)
  ---------------------------------------------------
  free  energy   TOTEN  =     -2125.14455935 eV

  energy  without entropy=    -2125.14455935  energy(sigma->0) =    -2125.14455935



--------------------------------------------------------------------------------------------------------


    POTLOK:  cpu time      0.7621: real time      0.7622


--------------------------------------------------------------------------------------------------------


     LOOP+:  cpu time    712.0890: real time    712.5038
    4ORBIT:  cpu time      0.0000: real time      0.0000

 total amount of memory used by VASP MPI-rank0   148045. kBytes
=======================================================================

   base      :      30000. kBytes
   nonl-proj :      43450. kBytes
   fftplans  :       7134. kBytes
   grid      :      10864. kBytes
   one-center:        233. kBytes
   wavefun   :      56364. kBytes

  
  
 General timing and accounting informations for this job:
 ========================================================
  
                  Total CPU time used (sec):      789.163
                            User time (sec):      778.456
                          System time (sec):       10.708
                         Elapsed time (sec):      803.690
  
                   Maximum memory used (kb):      491616.
                   Average memory used (kb):          N/A
  
                          Minor page faults:       957121
                          Major page faults:          657
                 Voluntary context switches:        11003
