 vasp.6.3.0 20Jan22 (build Mar 11 2022 13:48:16) complex                        
  
 executed on             LinuxIFC date 2024.01.21  22:36:01
 running on  304 total cores
 distrk:  each k-point on  304 cores,    1 groups
 distr:  one band on NCORE=   2 cores,  152 groups


--------------------------------------------------------------------------------------------------------


 INCAR:
   SYSTEM = TiO2
   ISMEAR = 0
   SIGMA = 0.05
   EDIFF = 1E-5
   ALGO = ALL
   ISTART = 0
   IBRION = -1
   NSW = 0
   ISYM = 0
   ISIF = 2
   EDIFFG = -0.01
   DIPOL = 0.5 0.5 0.5
   IDIPOL = 3
   LDIPOL = .TRUE.
   GGA = PE
   IVDW = 21
   LDAU = .TRUE.
   LDAUTYPE = 2
   LDAUL = 2 -1
   LDAUU = 4.2 0.0
   LDAUPRINT = 1
   LMAXMIX = 4
   ENCUT = 600
   PREC = Accurate
   LASPH = .TRUE.
   LREAL = .FALSE.
   ISPIN = 1
   NELM = 200
   NELMIN = 8
   NCORE = 2
   KPAR = 1
   LWAVE = .FALSE.
   LCHARG = .FALSE.

 POTCAR:    PAW_PBE Ti_pv 07Sep2000               
 POTCAR:    PAW_PBE O 08Apr2002                   
 -----------------------------------------------------------------------------
|                                                                             |
|           W    W    AA    RRRRR   N    N  II  N    N   GGGG   !!!           |
|           W    W   A  A   R    R  NN   N  II  NN   N  G    G  !!!           |
|           W    W  A    A  R    R  N N  N  II  N N  N  G       !!!           |
|           W WW W  AAAAAA  RRRRR   N  N N  II  N  N N  G  GGG   !            |
|           WW  WW  A    A  R   R   N   NN  II  N   NN  G    G                |
|           W    W  A    A  R    R  N    N  II  N    N   GGGG   !!!           |
|                                                                             |
|     For optimal performance we recommend to set                             |
|       NCORE = 2 up to number-of-cores-per-socket                            |
|     NCORE specifies how many cores store one orbital (NPAR=cpu/NCORE).      |
|     This setting can greatly improve the performance of VASP for DFT.       |
|     The default, NCORE=1 might be grossly inefficient on modern             |
|     multi-core architectures or massively parallel machines. Do your        |
|     own testing! More info at https://www.vasp.at/wiki/index.php/NCORE      |
|     Unfortunately you need to use the default for GW and RPA                |
|     calculations (for HF NCORE is supported but not extensively tested      |
|     yet).                                                                   |
|                                                                             |
 -----------------------------------------------------------------------------

 POTCAR:    PAW_PBE Ti_pv 07Sep2000               
   SHA256 =  f757a1b2c6d082f4c628fa3d987464a8763bf92e53844ac0500b0e2ddc9ce5c0 Ti_pv/POTCAR          
   COPYR  = (c) Copyright 07Sep2000 Georg Kresse                                                    
   COPYR  = This file is part of the software VASP. Any use, copying, and all other rights are regul
   COPYR  = If you do not have a valid VASP license, you may not use, copy or distribute this file. 
   VRHFIN =Ti: d3 s1                                                                                
   LEXCH  = PE                                                                                      
   EATOM  =  1042.5995 eV,   76.6289 Ry                                                             
                                                                                                    
   TITEL  = PAW_PBE Ti_pv 07Sep2000                                                                 
   LULTRA =        F    use ultrasoft PP ?                                                          
   IUNSCR =        1    unscreen: 0-lin 1-nonlin 2-no                                               
   RPACOR =    2.200    partial core radius                                                         
   POMASS =   47.880; ZVAL   =   10.000    mass and valenz                                          
   RCORE  =    2.500    outmost cutoff radius                                                       
   RWIGS  =    2.500; RWIGS  =    1.323    wigner-seitz radius (au A)                               
   ENMAX  =  222.335; ENMIN  =  166.751 eV                                                          
   RCLOC  =    1.701    cutoff for local pot                                                        
   LCOR   =        T    correct aug charges                                                         
   LPAW   =        T    paw PP                                                                      
   EAUG   =  482.848                                                                                
   DEXC   =    0.000                                                                                
   RMAX   =    2.564    core radius for proj-oper                                                   
   RAUG   =    1.300    factor for augmentation sphere                                              
   RDEP   =    2.538    radius for radial grids                                                     
   RDEPT  =    1.952    core radius for aug-charge                                                  
                                                                                                    
   Atomic configuration                                                                             
    8 entries                                                                                       
     n  l   j            E        occ.                                                              
     1  0  0.50     -4865.3608   2.0000                                                             
     2  0  0.50      -533.1368   2.0000                                                             
     2  1  1.50      -440.5031   6.0000                                                             
     3  0  0.50       -59.3186   2.0000                                                             
     3  1  1.50       -35.7012   6.0000                                                             
     3  2  2.50        -1.9157   3.0000                                                             
     4  0  0.50        -3.7291   1.0000                                                             
     4  3  2.50        -1.3606   0.0000                                                             
   Description                                                                                      
     l       E           TYP  RCUT    TYP  RCUT                                                     
     1    -35.7012140     23  2.300                                                                 
     1     -1.3605826     23  2.300                                                                 
     2     -1.9156996     23  2.500                                                                 
     2     -0.4063033     23  2.500                                                                 
     0     -3.7290856     23  2.500                                                                 
     0     20.4087390     23  2.500                                                                 
  local pseudopotential read in
  partial core-charges read in
  partial kinetic energy density read in
  atomic valenz-charges read in
  non local Contribution for L=           1  read in
    real space projection operators read in
  non local Contribution for L=           1  read in
    real space projection operators read in
  non local Contribution for L=           2  read in
    real space projection operators read in
  non local Contribution for L=           2  read in
    real space projection operators read in
  non local Contribution for L=           0  read in
    real space projection operators read in
  non local Contribution for L=           0  read in
    real space projection operators read in
    PAW grid and wavefunctions read in
 
   number of l-projection  operators is LMAX  =           6
   number of lm-projection operators is LMMAX =          18
 
 POTCAR:    PAW_PBE O 08Apr2002                   
   SHA256 =  818f92134a0a090dccd8ba1447fa70422a3b330e708bb4f08108d8ae51209ddf O/POTCAR              
   COPYR  = (c) Copyright 08Apr2002 Georg Kresse                                                    
   COPYR  = This file is part of the software VASP. Any use, copying, and all other rights are regul
   COPYR  = If you do not have a valid VASP license, you may not use, copy or distribute this file. 
   VRHFIN =O: s2p4                                                                                  
   LEXCH  = PE                                                                                      
   EATOM  =   432.3788 eV,   31.7789 Ry                                                             
                                                                                                    
   TITEL  = PAW_PBE O 08Apr2002                                                                     
   LULTRA =        F    use ultrasoft PP ?                                                          
   IUNSCR =        1    unscreen: 0-lin 1-nonlin 2-no                                               
   RPACOR =    1.200    partial core radius                                                         
   POMASS =   16.000; ZVAL   =    6.000    mass and valenz                                          
   RCORE  =    1.520    outmost cutoff radius                                                       
   RWIGS  =    1.550; RWIGS  =    0.820    wigner-seitz radius (au A)                               
   ENMAX  =  400.000; ENMIN  =  300.000 eV                                                          
   ICORE  =        2    local potential                                                             
   LCOR   =        T    correct aug charges                                                         
   LPAW   =        T    paw PP                                                                      
   EAUG   =  605.392                                                                                
   DEXC   =    0.000                                                                                
   RMAX   =    1.553    core radius for proj-oper                                                   
   RAUG   =    1.300    factor for augmentation sphere                                              
   RDEP   =    1.550    radius for radial grids                                                     
   RDEPT  =    1.329    core radius for aug-charge                                                  
                                                                                                    
   Atomic configuration                                                                             
    4 entries                                                                                       
     n  l   j            E        occ.                                                              
     1  0  0.50      -514.6923   2.0000                                                             
     2  0  0.50       -23.9615   2.0000                                                             
     2  1  0.50        -9.0305   4.0000                                                             
     3  2  1.50        -9.5241   0.0000                                                             
   Description                                                                                      
     l       E           TYP  RCUT    TYP  RCUT                                                     
     0    -23.9615318     23  1.200                                                                 
     0     -9.5240782     23  1.200                                                                 
     1     -9.0304911     23  1.520                                                                 
     1      8.1634956     23  1.520                                                                 
     2     -9.5240782      7  1.500                                                                 
  local pseudopotential read in
  partial core-charges read in
  partial kinetic energy density read in
  kinetic energy density of atom read in
  atomic valenz-charges read in
  non local Contribution for L=           0  read in
    real space projection operators read in
  non local Contribution for L=           0  read in
    real space projection operators read in
  non local Contribution for L=           1  read in
    real space projection operators read in
  non local Contribution for L=           1  read in
    real space projection operators read in
    PAW grid and wavefunctions read in
 
   number of l-projection  operators is LMAX  =           4
   number of lm-projection operators is LMMAX =           8
 
 -----------------------------------------------------------------------------
|                                                                             |
|               ----> ADVICE to this user running VASP <----                  |
|                                                                             |
|     You have a (more or less) 'large supercell' and for larger cells it     |
|     might be more efficient to use real-space projection operators.         |
|     Therefore, try LREAL= Auto in the INCAR file.                           |
|     Mind: For very accurate calculation, you might also keep the            |
|     reciprocal projection scheme (i.e. LREAL=.FALSE.).                      |
|                                                                             |
 -----------------------------------------------------------------------------

  PAW_PBE Ti_pv 07Sep2000               :
 energy of atom  1       EATOM=-1042.5995
 kinetic energy error for atom=    0.0007 (will be added to EATOM!!)
  PAW_PBE O 08Apr2002                   :
 energy of atom  2       EATOM= -432.3788
 kinetic energy error for atom=    0.0168 (will be added to EATOM!!)
 
 
 POSCAR: Ti  O
  positions in direct lattice
  No initial velocities read in
 exchange correlation table for  LEXCH =        8
   RHO(1)=    0.500       N(1)  =     2000
   RHO(2)=  100.500       N(2)  =     4000
 


--------------------------------------------------------------------------------------------------------


 ion  position               nearest neighbor table
   1  0.750  0.625  0.287-  82 1.95 142 1.95 141 1.95  81 1.95  84 1.98 163 1.98  11 2.96  31 2.96

   2  0.000  0.750  0.287-  83 1.95  84 1.95 103 1.95 104 1.95  85 1.98  32 2.96  12 2.96
   3  0.000  0.625  0.394-  85 1.95 145 1.95  86 1.95 146 1.95  87 1.98  88 1.98  13 2.96  33 2.96

   4  0.750  0.750  0.394-  87 1.95 107 1.95 168 1.95 188 1.95  89 1.98  82 1.98  14 2.96  34 2.96

   5  0.750  0.625  0.500-  89 1.95  90 1.95 149 1.95 150 1.95  92 1.98 171 1.98  15 2.96  35 2.96

   6  0.000  0.750  0.500-  91 1.95  92 1.95 111 1.95 112 1.95  86 1.98  93 2.00  16 2.96  36 2.96

   7  0.007  0.625  0.604-  96 1.87 153 1.90  93 1.90  94 2.02 154 2.02  95 2.03  17 2.96  37 2.96

   8  0.756  0.750  0.610-  97 1.87  95 1.93 115 1.93 176 2.01 196 2.01  90 2.09  18 2.96  38 2.96

   9  0.751  0.626  0.719-  98 1.83 158 1.87 179 2.00 100 2.02  97 2.08 157 2.09  19 2.95  39 2.99

  10  1.000  0.750  0.708-  94 1.81 119 1.94 120 1.94  99 1.95 100 1.96  20 2.95  40 2.96
  11  0.750  0.875  0.287-  82 1.95 102 1.95 101 1.95  81 1.95 104 1.98 183 1.98   1 2.96  21 2.96

  12  0.000  0.000  0.287- 103 1.95 104 1.95 123 1.95 124 1.95 105 1.98  22 2.96   2 2.96
  13  0.000  0.875  0.394-  85 1.95 105 1.95  86 1.95 106 1.95 107 1.98 108 1.98   3 2.96  23 2.96

  14  0.750  0.000  0.394- 107 1.95 127 1.95 188 1.95 208 1.95 109 1.98 102 1.98   4 2.96  24 2.96

  15  0.750  0.875  0.500-  89 1.95  90 1.95 109 1.95 110 1.95 112 1.98 191 1.98   5 2.96  25 2.96

  16  0.000  0.000  0.500- 111 1.95 112 1.95 131 1.95 132 1.95 106 1.98 113 2.00   6 2.96  26 2.96

  17  0.007  0.875  0.604- 116 1.87  93 1.90 113 1.90 114 2.02  94 2.02 115 2.04  27 2.96   7 2.96

  18  0.756  0.000  0.611- 117 1.87 115 1.93 135 1.93 216 2.01 196 2.02 110 2.10  28 2.96   8 2.96

  19  0.750  0.875  0.720- 118 1.84  98 1.84 199 2.02 120 2.04  97 2.09 117 2.09   9 2.95  29 2.95

  20  0.000  1.000  0.708- 114 1.81 120 1.95 140 1.95 139 1.95 119 1.95  10 2.95  30 2.95
  21  0.750  0.125  0.287- 102 1.95 122 1.95 121 1.95 101 1.95 124 1.98 203 1.98  11 2.96  31 2.96

  22  0.000  0.250  0.287- 123 1.95 124 1.95 143 1.95 144 1.95 125 1.98  32 2.96  12 2.96
  23  0.000  0.125  0.394- 105 1.95 125 1.95 106 1.95 126 1.95 127 1.98 128 1.98  13 2.96  33 2.96

  24  0.750  0.250  0.394- 127 1.95 147 1.95 208 1.95 228 1.95 129 1.98 122 1.98  14 2.96  34 2.96

  25  0.750  0.125  0.500- 109 1.95 110 1.95 129 1.95 130 1.95 132 1.98 211 1.98  15 2.96  35 2.96

  26  0.000  0.250  0.500- 131 1.95 132 1.95 151 1.95 152 1.95 126 1.98 133 2.00  16 2.96  36 2.96

  27  0.007  0.125  0.604- 136 1.86 133 1.90 113 1.90 114 2.02 134 2.02 135 2.04  17 2.96  37 2.96

  28  0.756  0.250  0.610- 137 1.87 135 1.93 155 1.93 216 2.01 236 2.01 130 2.09  18 2.96  38 2.96

  29  0.750  0.124  0.720- 118 1.83 138 1.84 219 2.02 140 2.04 117 2.09 137 2.10  39 2.95  19 2.95

  30  0.000  0.250  0.708- 134 1.81 139 1.94 140 1.94 159 1.95 160 1.96  20 2.95  40 2.96
  31  0.750  0.375  0.287- 122 1.95 142 1.95 141 1.95 121 1.95 144 1.98 223 1.98   1 2.96  21 2.96

  32  0.000  0.500  0.287-  83 1.95  84 1.95 143 1.95 144 1.95 145 1.98  22 2.96   2 2.96
  33  0.000  0.375  0.394- 125 1.95 145 1.95 126 1.95 146 1.95 147 1.98 148 1.98   3 2.96  23 2.96

  34  0.750  0.500  0.394-  87 1.95 147 1.95 168 1.95 228 1.95 142 1.98 149 1.98   4 2.96  24 2.96

  35  0.750  0.375  0.500- 129 1.95 130 1.95 149 1.95 150 1.95 152 1.98 231 1.98   5 2.96  25 2.96

  36  0.000  0.500  0.500-  91 1.95  92 1.95 151 1.95 152 1.95 146 1.98 153 2.00   6 2.96  26 2.96

  37  0.007  0.375  0.604- 156 1.87 153 1.90 133 1.90 134 2.02 154 2.02 155 2.03  27 2.96   7 2.96

  38  0.756  0.500  0.610- 157 1.86 155 1.93  95 1.93 236 2.02 176 2.02 150 2.10   8 2.96  28 2.96

  39  0.751  0.373  0.719- 138 1.83 158 1.87 160 2.01 239 2.02 137 2.06 157 2.10  29 2.95   9 2.99

  40  0.001  0.500  0.708- 154 1.81 159 1.94  99 1.94 100 1.95 160 1.95  10 2.96  30 2.96
  41  0.250  0.625  0.287- 162 1.95 222 1.95 221 1.95 161 1.95  83 1.98 164 1.98  51 2.96  71 2.96

  42  0.500  0.750  0.287- 163 1.95 164 1.95 183 1.95 184 1.95 165 1.98  72 2.96  52 2.96
  43  0.500  0.625  0.394- 165 1.95 225 1.95 166 1.95 226 1.95 167 1.98 168 1.98  53 2.96  73 2.96

  44  0.250  0.750  0.394-  88 1.95 108 1.95 167 1.95 187 1.95 169 1.98 162 1.98  54 2.96  74 2.96

  45  0.250  0.625  0.500- 169 1.95 170 1.95 229 1.95 230 1.95  91 1.98 172 1.98  55 2.96  75 2.96

  46  0.500  0.750  0.500- 171 1.95 172 1.95 191 1.95 192 1.95 166 1.98 173 1.99  56 2.96  76 2.96

  47  0.507  0.623  0.605- 176 1.88 233 1.90 173 1.93 234 1.98 174 2.01 175 2.04  77 2.90  57 2.97

  48  0.256  0.750  0.610- 177 1.87 175 1.92 195 1.92  96 2.02 116 2.02 170 2.10  78 2.96  58 2.96

  49  0.250  0.625  0.720- 178 1.83 238 1.84  99 2.03 180 2.04 177 2.09 237 2.09  59 2.96  79 2.96

  50  0.501  0.750  0.707- 174 1.80 179 1.91 180 1.94 199 1.95 200 1.96  60 2.96  80 2.97
  51  0.250  0.875  0.287- 162 1.95 182 1.95 181 1.95 161 1.95 103 1.98 184 1.98  41 2.96  61 2.96

  52  0.500  0.000  0.287- 183 1.95 184 1.95 203 1.95 204 1.95 185 1.98  62 2.96  42 2.96
  53  0.500  0.875  0.394- 165 1.95 185 1.95 166 1.95 186 1.95 187 1.98 188 1.98  43 2.96  63 2.96

  54  0.250  0.000  0.394- 108 1.95 128 1.95 187 1.95 207 1.95 189 1.98 182 1.98  44 2.96  64 2.96

  55  0.250  0.875  0.500- 169 1.95 170 1.95 189 1.95 190 1.95 111 1.98 192 1.98  45 2.96  65 2.96

  56  0.500  0.000  0.500- 191 1.95 192 1.95 211 1.95 212 1.95 186 1.98 193 1.98  46 2.96  66 2.96

  57  0.507  0.874  0.603- 196 1.88 173 1.88 193 1.90 174 2.00 194 2.03 195 2.04  47 2.97  67 2.98

  58  0.256  1.000  0.611- 197 1.86 195 1.92 215 1.92 136 2.02 116 2.02 190 2.11  48 2.96  68 2.96

  59  0.251  0.875  0.720- 198 1.83 178 1.84 200 2.02 119 2.04 197 2.10 177 2.10  49 2.96  69 2.96

  60  0.499  1.000  0.707- 194 1.80 200 1.94 220 1.94 219 1.96 199 1.96  70 2.95  50 2.96
  61  0.250  0.125  0.287- 182 1.95 202 1.95 201 1.95 181 1.95 123 1.98 204 1.98  51 2.96  71 2.96

  62  0.500  0.250  0.287- 203 1.95 204 1.95 223 1.95 224 1.95 205 1.98  72 2.96  52 2.96
  63  0.500  0.125  0.394- 185 1.95 205 1.95 186 1.95 206 1.95 207 1.98 208 1.98  53 2.96  73 2.96

  64  0.250  0.250  0.394- 128 1.95 148 1.95 207 1.95 227 1.95 209 1.98 202 1.98  54 2.96  74 2.96

  65  0.250  0.125  0.500- 189 1.95 190 1.95 209 1.95 210 1.95 131 1.98 212 1.98  55 2.96  75 2.96

  66  0.500  0.250  0.500- 211 1.95 212 1.95 231 1.95 232 1.95 206 1.98 213 1.99  56 2.96  76 2.96

  67  0.507  0.126  0.603- 216 1.88 213 1.88 193 1.90 214 2.00 194 2.03 215 2.04  77 2.97  57 2.98

  68  0.256  0.250  0.611- 217 1.86 235 1.92 215 1.93 156 2.02 136 2.02 210 2.11  78 2.96  58 2.96

  69  0.251  0.125  0.720- 198 1.83 218 1.84 220 2.02 139 2.04 217 2.10 197 2.10  59 2.96  79 2.96

  70  0.501  0.250  0.707- 214 1.80 239 1.92 240 1.94 219 1.95 220 1.96  60 2.95  80 2.96
  71  0.250  0.375  0.287- 202 1.95 222 1.95 221 1.95 201 1.95 143 1.98 224 1.98  41 2.96  61 2.96

  72  0.500  0.500  0.287- 163 1.95 164 1.95 223 1.95 224 1.95 225 1.98  62 2.96  42 2.96
  73  0.500  0.375  0.394- 205 1.95 225 1.95 206 1.95 226 1.95 227 1.98 228 1.98  43 2.96  63 2.96

  74  0.250  0.500  0.394-  88 1.95 148 1.95 167 1.95 227 1.95 222 1.98 229 1.98  44 2.96  64 2.96

  75  0.250  0.375  0.500- 209 1.95 210 1.95 229 1.95 230 1.95 151 1.98 232 1.98  45 2.96  65 2.96

  76  0.500  0.500  0.500- 171 1.95 172 1.95 231 1.95 232 1.95 226 1.98 233 2.00  46 2.96  66 2.96

  77  0.507  0.377  0.606- 236 1.88 233 1.90 213 1.94 234 1.98 214 2.01 235 2.04  47 2.90  67 2.97

  78  0.256  0.500  0.611- 237 1.86 175 1.92 235 1.93 156 2.02  96 2.02 230 2.11  68 2.96  48 2.96

  79  0.250  0.375  0.720- 218 1.83 238 1.84 159 2.03 240 2.03 217 2.10 237 2.10  69 2.96  49 2.96

  80  0.501  0.499  0.712- 234 1.91 240 1.93 180 1.94 239 1.96 179 1.99  70 2.96  50 2.97
  81  0.750  0.750  0.245-   1 1.95  11 1.95
  82  0.750  0.750  0.329-   1 1.95  11 1.95   4 1.98
  83  0.098  0.625  0.287-   2 1.95  32 1.95  41 1.98
  84  0.902  0.625  0.287-   2 1.95  32 1.95   1 1.98
  85  0.000  0.750  0.352-   3 1.95  13 1.95   2 1.98
  86  0.000  0.750  0.435-   3 1.95  13 1.95   6 1.98
  87  0.848  0.625  0.394-   4 1.95  34 1.95   3 1.98
  88  0.152  0.625  0.394-  44 1.95  74 1.95   3 1.98
  89  0.750  0.750  0.458-   5 1.95  15 1.95   4 1.98
  90  0.750  0.750  0.542-   5 1.95  15 1.95   8 2.09
  91  0.098  0.625  0.500-   6 1.95  36 1.95  45 1.98
  92  0.902  0.625  0.500-   6 1.95  36 1.95   5 1.98
  93  0.001  0.750  0.565-  17 1.90   7 1.90   6 2.00
  94  1.000  0.750  0.649-  10 1.81   7 2.02  17 2.02
  95  0.851  0.625  0.607-   8 1.93  38 1.93   7 2.03
  96  0.150  0.625  0.607-   7 1.87  78 2.02  48 2.02
  97  0.754  0.751  0.671-   8 1.87   9 2.08  19 2.09
  98  0.748  0.749  0.756-   9 1.83  19 1.84
  99  0.095  0.625  0.719-  40 1.94  10 1.95  49 2.03
 100  0.906  0.624  0.720-  40 1.95  10 1.96   9 2.02
 101  0.750  0.000  0.245-  11 1.95  21 1.95
 102  0.750  0.000  0.329-  11 1.95  21 1.95  14 1.98
 103  0.098  0.875  0.287-   2 1.95  12 1.95  51 1.98
 104  0.902  0.875  0.287-   2 1.95  12 1.95  11 1.98
 105  0.000  0.000  0.352-  13 1.95  23 1.95  12 1.98
 106  0.000  0.000  0.435-  13 1.95  23 1.95  16 1.98
 107  0.848  0.875  0.394-   4 1.95  14 1.95  13 1.98
 108  0.152  0.875  0.394-  44 1.95  54 1.95  13 1.98
 109  0.750  0.000  0.458-  15 1.95  25 1.95  14 1.98
 110  0.750  0.000  0.542-  15 1.95  25 1.95  18 2.10
 111  0.098  0.875  0.500-   6 1.95  16 1.95  55 1.98
 112  0.902  0.875  0.500-   6 1.95  16 1.95  15 1.98
 113  0.001  0.000  0.565-  27 1.90  17 1.90  16 2.00
 114  0.000  0.000  0.649-  20 1.81  27 2.02  17 2.02
 115  0.851  0.876  0.607-  18 1.93   8 1.93  17 2.04
 116  0.150  0.875  0.607-  17 1.87  48 2.02  58 2.02
 117  0.751  0.000  0.672-  18 1.87  29 2.09  19 2.09
 118  0.750  1.000  0.756-  29 1.83  19 1.84
 119  0.094  0.875  0.719-  10 1.94  20 1.95  59 2.04
 120  0.906  0.875  0.719-  10 1.94  20 1.95  19 2.04
 121  0.750  0.250  0.245-  21 1.95  31 1.95
 122  0.750  0.250  0.329-  21 1.95  31 1.95  24 1.98
 123  0.098  0.125  0.287-  12 1.95  22 1.95  61 1.98
 124  0.902  0.125  0.287-  12 1.95  22 1.95  21 1.98
 125  0.000  0.250  0.352-  23 1.95  33 1.95  22 1.98
 126  0.000  0.250  0.435-  23 1.95  33 1.95  26 1.98
 127  0.848  0.125  0.394-  14 1.95  24 1.95  23 1.98
 128  0.152  0.125  0.394-  54 1.95  64 1.95  23 1.98
 129  0.750  0.250  0.458-  25 1.95  35 1.95  24 1.98
 130  0.750  0.250  0.542-  25 1.95  35 1.95  28 2.09
 131  0.098  0.125  0.500-  16 1.95  26 1.95  65 1.98
 132  0.902  0.125  0.500-  16 1.95  26 1.95  25 1.98
 133  0.001  0.250  0.565-  37 1.90  27 1.90  26 2.00
 134  0.000  0.250  0.649-  30 1.81  37 2.02  27 2.02
 135  0.851  0.125  0.607-  18 1.93  28 1.93  27 2.04
 136  0.150  0.125  0.607-  27 1.86  58 2.02  68 2.02
 137  0.753  0.250  0.671-  28 1.87  39 2.06  29 2.10
 138  0.749  0.251  0.756-  39 1.83  29 1.84
 139  0.094  0.125  0.719-  30 1.94  20 1.95  69 2.04
 140  0.906  0.125  0.719-  30 1.94  20 1.95  29 2.04
 141  0.750  0.500  0.245-   1 1.95  31 1.95
 142  0.750  0.500  0.329-   1 1.95  31 1.95  34 1.98
 143  0.098  0.375  0.287-  22 1.95  32 1.95  71 1.98
 144  0.902  0.375  0.287-  22 1.95  32 1.95  31 1.98
 145  0.000  0.500  0.352-   3 1.95  33 1.95  32 1.98
 146  0.000  0.500  0.435-   3 1.95  33 1.95  36 1.98
 147  0.848  0.375  0.394-  24 1.95  34 1.95  33 1.98
 148  0.152  0.375  0.394-  64 1.95  74 1.95  33 1.98
 149  0.750  0.500  0.458-   5 1.95  35 1.95  34 1.98
 150  0.750  0.500  0.542-   5 1.95  35 1.95  38 2.10
 151  0.098  0.375  0.500-  26 1.95  36 1.95  75 1.98
 152  0.902  0.375  0.500-  26 1.95  36 1.95  35 1.98
 153  0.001  0.500  0.565-  37 1.90   7 1.90  36 2.00
 154  0.000  0.500  0.649-  40 1.81   7 2.02  37 2.02
 155  0.851  0.375  0.607-  28 1.93  38 1.93  37 2.03
 156  0.150  0.375  0.607-  37 1.87  78 2.02  68 2.02
 157  0.755  0.500  0.671-  38 1.86   9 2.09  39 2.10
 158  0.740  0.500  0.756-   9 1.87  39 1.87
 159  0.095  0.375  0.719-  40 1.94  30 1.95  79 2.03
 160  0.906  0.376  0.720-  40 1.95  30 1.96  39 2.01
 161  0.250  0.750  0.245-  41 1.95  51 1.95
 162  0.250  0.750  0.329-  41 1.95  51 1.95  44 1.98
 163  0.598  0.625  0.287-  42 1.95  72 1.95   1 1.98
 164  0.402  0.625  0.287-  42 1.95  72 1.95  41 1.98
 165  0.500  0.750  0.352-  43 1.95  53 1.95  42 1.98
 166  0.500  0.750  0.435-  43 1.95  53 1.95  46 1.98
 167  0.348  0.625  0.394-  44 1.95  74 1.95  43 1.98
 168  0.652  0.625  0.394-   4 1.95  34 1.95  43 1.98
 169  0.250  0.750  0.458-  45 1.95  55 1.95  44 1.98
 170  0.250  0.750  0.542-  45 1.95  55 1.95  48 2.10
 171  0.598  0.625  0.500-  46 1.95  76 1.95   5 1.98
 172  0.402  0.625  0.500-  46 1.95  76 1.95  45 1.98
 173  0.501  0.749  0.565-  57 1.88  47 1.93  46 1.99
 174  0.498  0.752  0.648-  50 1.80  57 2.00  47 2.01
 175  0.350  0.625  0.607-  48 1.92  78 1.92  47 2.04
 176  0.651  0.625  0.608-  47 1.88   8 2.01  38 2.02
 177  0.251  0.750  0.672-  48 1.87  49 2.09  59 2.10
 178  0.251  0.750  0.756-  49 1.83  59 1.84
 179  0.597  0.630  0.714-  50 1.91  80 1.99   9 2.00
 180  0.408  0.626  0.719-  80 1.94  50 1.94  49 2.04
 181  0.250  0.000  0.245-  51 1.95  61 1.95
 182  0.250  0.000  0.329-  51 1.95  61 1.95  54 1.98
 183  0.598  0.875  0.287-  42 1.95  52 1.95  11 1.98
 184  0.402  0.875  0.287-  42 1.95  52 1.95  51 1.98
 185  0.500  0.000  0.352-  53 1.95  63 1.95  52 1.98
 186  0.500  0.000  0.435-  53 1.95  63 1.95  56 1.98
 187  0.348  0.875  0.394-  44 1.95  54 1.95  53 1.98
 188  0.652  0.875  0.394-   4 1.95  14 1.95  53 1.98
 189  0.250  0.000  0.458-  55 1.95  65 1.95  54 1.98
 190  0.250  0.000  0.542-  55 1.95  65 1.95  58 2.11
 191  0.598  0.875  0.500-  46 1.95  56 1.95  15 1.98
 192  0.402  0.875  0.500-  46 1.95  56 1.95  55 1.98
 193  0.500  0.000  0.565-  57 1.90  67 1.90  56 1.98
 194  0.500  1.000  0.648-  60 1.80  57 2.03  67 2.03
 195  0.350  0.875  0.607-  58 1.92  48 1.92  57 2.04
 196  0.651  0.875  0.607-  57 1.88   8 2.01  18 2.02
 197  0.250  1.000  0.672-  58 1.86  59 2.10  69 2.10
 198  0.250  0.000  0.756-  59 1.83  69 1.83
 199  0.595  0.875  0.718-  50 1.95  60 1.96  19 2.02
 200  0.406  0.876  0.718-  60 1.94  50 1.96  59 2.02
 201  0.250  0.250  0.245-  61 1.95  71 1.95
 202  0.250  0.250  0.329-  61 1.95  71 1.95  64 1.98
 203  0.598  0.125  0.287-  52 1.95  62 1.95  21 1.98
 204  0.402  0.125  0.287-  52 1.95  62 1.95  61 1.98
 205  0.500  0.250  0.352-  63 1.95  73 1.95  62 1.98
 206  0.500  0.250  0.435-  63 1.95  73 1.95  66 1.98
 207  0.348  0.125  0.394-  54 1.95  64 1.95  63 1.98
 208  0.652  0.125  0.394-  14 1.95  24 1.95  63 1.98
 209  0.250  0.250  0.458-  65 1.95  75 1.95  64 1.98
 210  0.250  0.250  0.542-  65 1.95  75 1.95  68 2.11
 211  0.598  0.125  0.500-  56 1.95  66 1.95  25 1.98
 212  0.402  0.125  0.500-  56 1.95  66 1.95  65 1.98
 213  0.501  0.251  0.565-  67 1.88  77 1.94  66 1.99
 214  0.499  0.248  0.648-  70 1.80  67 2.00  77 2.01
 215  0.350  0.125  0.607-  58 1.92  68 1.93  67 2.04
 216  0.651  0.125  0.607-  67 1.88  28 2.01  18 2.01
 217  0.250  0.250  0.672-  68 1.86  69 2.10  79 2.10
 218  0.251  0.250  0.756-  79 1.83  69 1.84
 219  0.595  0.125  0.718-  70 1.95  60 1.96  29 2.02
 220  0.406  0.124  0.718-  60 1.94  70 1.96  69 2.02
 221  0.250  0.500  0.245-  41 1.95  71 1.95
 222  0.250  0.500  0.329-  41 1.95  71 1.95  74 1.98
 223  0.598  0.375  0.287-  62 1.95  72 1.95  31 1.98
 224  0.402  0.375  0.287-  62 1.95  72 1.95  71 1.98
 225  0.500  0.500  0.352-  43 1.95  73 1.95  72 1.98
 226  0.500  0.500  0.435-  43 1.95  73 1.95  76 1.98
 227  0.348  0.375  0.394-  64 1.95  74 1.95  73 1.98
 228  0.652  0.375  0.394-  24 1.95  34 1.95  73 1.98
 229  0.250  0.500  0.458-  45 1.95  75 1.95  74 1.98
 230  0.250  0.500  0.542-  45 1.95  75 1.95  78 2.11
 231  0.598  0.375  0.500-  66 1.95  76 1.95  35 1.98
 232  0.402  0.375  0.500-  66 1.95  76 1.95  75 1.98
 233  0.501  0.500  0.566-  47 1.90  77 1.90  76 2.00
 234  0.500  0.500  0.650-  80 1.91  47 1.98  77 1.98
 235  0.350  0.375  0.607-  68 1.92  78 1.93  77 2.04
 236  0.651  0.375  0.608-  77 1.88  28 2.01  38 2.02
 237  0.250  0.500  0.672-  78 1.86  49 2.09  79 2.10
 238  0.252  0.500  0.756-  79 1.84  49 1.84
 239  0.597  0.371  0.715-  70 1.92  80 1.96  39 2.02
 240  0.407  0.374  0.718-  80 1.93  70 1.94  79 2.03
 

IMPORTANT INFORMATION: All symmetrisations will be switched off!
NOSYMM: (Re-)initialisation of all symmetry stuff for point group C_1.


----------------------------------------------------------------------------------------

                                     Primitive cell                                     

  volume of cell :    4700.2961

  direct lattice vectors                    reciprocal lattice vectors
    13.003980404  0.000000000  0.000000000     0.076899531  0.000000000  0.000000000
     0.000000000 11.830378115  0.000000000     0.000000000  0.084528152  0.000000000
     0.000000000  0.000000000 30.552748813     0.000000000  0.000000000  0.032730279

  length of vectors
    13.003980404 11.830378115 30.552748813     0.076899531  0.084528152  0.032730279

  position of ions in fractional coordinates (direct lattice)
     0.750000000  0.625000000  0.287188045
     0.000000000  0.750000000  0.287188045
     0.000000000  0.625000000  0.393594023
     0.750000000  0.750000000  0.393594023
     0.750000000  0.625000000  0.500000000
     0.000000000  0.750000000  0.500000000
     0.006993774  0.625073986  0.604046202
     0.756133557  0.750114422  0.610207977
     0.750759752  0.625797847  0.719102266
     0.999978673  0.750342000  0.708177627
     0.750000000  0.875000000  0.287188045
     0.000000000  0.000000000  0.287188045
     0.000000000  0.875000000  0.393594023
     0.750000000  0.000000000  0.393594023
     0.750000000  0.875000000  0.500000000
     0.000000000  0.000000000  0.500000000
     0.007105127  0.875049078  0.604101504
     0.755700079  0.000050128  0.610520273
     0.749628850  0.874940193  0.720168330
     0.000248360  0.999945581  0.708144814
     0.750000000  0.125000000  0.287188045
     0.000000000  0.250000000  0.287188045
     0.000000000  0.125000000  0.393594023
     0.750000000  0.250000000  0.393594023
     0.750000000  0.125000000  0.500000000
     0.000000000  0.250000000  0.500000000
     0.007272160  0.124967895  0.604110878
     0.756020659  0.249869324  0.610140302
     0.749590896  0.124216859  0.720174278
     0.000192105  0.249631163  0.708168764
     0.750000000  0.375000000  0.287188045
     0.000000000  0.500000000  0.287188045
     0.000000000  0.375000000  0.393594023
     0.750000000  0.500000000  0.393594023
     0.750000000  0.375000000  0.500000000
     0.000000000  0.500000000  0.500000000
     0.006984987  0.374982529  0.604028350
     0.756360084  0.500008577  0.610371278
     0.751441947  0.373222885  0.719136832
     0.000822413  0.500125693  0.708109682
     0.250000000  0.625000000  0.287188045
     0.500000000  0.750000000  0.287188045
     0.500000000  0.625000000  0.393594023
     0.250000000  0.750000000  0.393594023
     0.250000000  0.625000000  0.500000000
     0.500000000  0.750000000  0.500000000
     0.507162857  0.622674843  0.605370118
     0.256146052  0.749992212  0.610460436
     0.250336699  0.625322801  0.720069271
     0.500758605  0.750128350  0.706878545
     0.250000000  0.875000000  0.287188045
     0.500000000  0.000000000  0.287188045
     0.500000000  0.875000000  0.393594023
     0.250000000  0.000000000  0.393594023
     0.250000000  0.875000000  0.500000000
     0.500000000  0.000000000  0.500000000
     0.507083618  0.874027206  0.603027326
     0.256004148  0.999990077  0.610576970
     0.251039654  0.875163053  0.720262046
     0.499486054  0.999974098  0.707124768
     0.250000000  0.125000000  0.287188045
     0.500000000  0.250000000  0.287188045
     0.500000000  0.125000000  0.393594023
     0.250000000  0.250000000  0.393594023
     0.250000000  0.125000000  0.500000000
     0.500000000  0.250000000  0.500000000
     0.506947780  0.126158046  0.603135701
     0.256059418  0.250139164  0.610565047
     0.250828751  0.125040888  0.720228214
     0.500662990  0.249742204  0.707249763
     0.250000000  0.375000000  0.287188045
     0.500000000  0.500000000  0.287188045
     0.500000000  0.375000000  0.393594023
     0.250000000  0.500000000  0.393594023
     0.250000000  0.375000000  0.500000000
     0.500000000  0.500000000  0.500000000
     0.507134435  0.377364860  0.605557422
     0.255708164  0.500065870  0.610602186
     0.250326702  0.375025466  0.720203536
     0.500756877  0.499470884  0.712074479
     0.750000000  0.750000000  0.245477094
     0.750000000  0.750000000  0.328898996
     0.097999548  0.625000000  0.287188045
     0.902000452  0.625000000  0.287188045
     0.000000000  0.750000000  0.351883072
     0.000000000  0.750000000  0.435304973
     0.847999548  0.625000000  0.393594023
     0.152000452  0.625000000  0.393594023
     0.750000000  0.750000000  0.458289049
     0.750000000  0.750000000  0.541710951
     0.097999548  0.625000000  0.500000000
     0.902000452  0.625000000  0.500000000
     0.000615644  0.750151725  0.565324429
     0.999880055  0.749849025  0.649067897
     0.850906167  0.625290898  0.606562138
     0.150469956  0.625204486  0.607029998
     0.753940980  0.750900793  0.671404483
     0.748495082  0.748910957  0.755559228
     0.094583664  0.625127146  0.718791808
     0.906251560  0.624285174  0.719686922
     0.750000000  0.000000000  0.245477094
     0.750000000  0.000000000  0.328898996
     0.097999548  0.875000000  0.287188045
     0.902000452  0.875000000  0.287188045
     0.000000000  0.000000000  0.351883072
     0.000000000  0.000000000  0.435304973
     0.847999548  0.875000000  0.393594023
     0.152000452  0.875000000  0.393594023
     0.750000000  0.000000000  0.458289049
     0.750000000  0.000000000  0.541710951
     0.097999548  0.875000000  0.500000000
     0.902000452  0.875000000  0.500000000
     0.000682385  0.000026813  0.565338635
     0.000247765  0.000016497  0.649040569
     0.850688897  0.875516295  0.606877656
     0.150463510  0.874886358  0.607121453
     0.750905919  0.000042456  0.671706932
     0.750102757  0.999777503  0.755869917
     0.094382871  0.874549383  0.718552585
     0.906260447  0.875021857  0.719161215
     0.750000000  0.250000000  0.245477094
     0.750000000  0.250000000  0.328898996
     0.097999548  0.125000000  0.287188045
     0.902000452  0.125000000  0.287188045
     0.000000000  0.250000000  0.351883072
     0.000000000  0.250000000  0.435304973
     0.847999548  0.125000000  0.393594023
     0.152000452  0.125000000  0.393594023
     0.750000000  0.250000000  0.458289049
     0.750000000  0.250000000  0.541710951
     0.097999548  0.125000000  0.500000000
     0.902000452  0.125000000  0.500000000
     0.000594458  0.249884179  0.565331516
     0.000046012  0.250192028  0.649073596
     0.850623896  0.124733471  0.606968538
     0.150460516  0.125032257  0.607028445
     0.753114175  0.249795904  0.671440357
     0.749299467  0.250631071  0.755500054
     0.094250770  0.125326590  0.718678543
     0.906206091  0.124979667  0.718960367
     0.750000000  0.500000000  0.245477094
     0.750000000  0.500000000  0.328898996
     0.097999548  0.375000000  0.287188045
     0.902000452  0.375000000  0.287188045
     0.000000000  0.500000000  0.351883072
     0.000000000  0.500000000  0.435304973
     0.847999548  0.375000000  0.393594023
     0.152000452  0.375000000  0.393594023
     0.750000000  0.500000000  0.458289049
     0.750000000  0.500000000  0.541710951
     0.097999548  0.375000000  0.500000000
     0.902000452  0.375000000  0.500000000
     0.000711837  0.500024658  0.565311345
     0.000093537  0.500040047  0.649009457
     0.850890441  0.374717535  0.606589777
     0.150481257  0.374977112  0.607008893
     0.755446116  0.500065496  0.671264341
     0.739605783  0.499859698  0.755610271
     0.094500812  0.375093184  0.718786457
     0.906287798  0.375724569  0.719662355
     0.250000000  0.750000000  0.245477094
     0.250000000  0.750000000  0.328898996
     0.597999548  0.625000000  0.287188045
     0.402000452  0.625000000  0.287188045
     0.500000000  0.750000000  0.351883072
     0.500000000  0.750000000  0.435304973
     0.347999548  0.625000000  0.393594023
     0.652000452  0.625000000  0.393594023
     0.250000000  0.750000000  0.458289049
     0.250000000  0.750000000  0.541710951
     0.597999548  0.625000000  0.500000000
     0.402000452  0.625000000  0.500000000
     0.500817049  0.748794576  0.565136117
     0.498058711  0.751631840  0.647994695
     0.350072833  0.624919736  0.606983878
     0.651289387  0.625309938  0.607548003
     0.251299759  0.749734257  0.671563240
     0.250923658  0.749841388  0.755826028
     0.597218859  0.629836769  0.713507024
     0.407567280  0.625641522  0.719239697
     0.250000000  0.000000000  0.245477094
     0.250000000  0.000000000  0.328898996
     0.597999548  0.875000000  0.287188045
     0.402000452  0.875000000  0.287188045
     0.500000000  0.000000000  0.351883072
     0.500000000  0.000000000  0.435304973
     0.347999548  0.875000000  0.393594023
     0.652000452  0.875000000  0.393594023
     0.250000000  0.000000000  0.458289049
     0.250000000  0.000000000  0.541710951
     0.597999548  0.875000000  0.500000000
     0.402000452  0.875000000  0.500000000
     0.500411853  0.000153594  0.564859564
     0.500313159  0.999954189  0.648256401
     0.350145731  0.875259307  0.606698772
     0.650976788  0.874850565  0.606937819
     0.250398031  0.999970649  0.671537684
     0.249740186  0.000045268  0.755786521
     0.594530483  0.874909592  0.718125345
     0.406093554  0.875992683  0.718461482
     0.250000000  0.250000000  0.245477094
     0.250000000  0.250000000  0.328898996
     0.597999548  0.125000000  0.287188045
     0.402000452  0.125000000  0.287188045
     0.500000000  0.250000000  0.351883072
     0.500000000  0.250000000  0.435304973
     0.347999548  0.125000000  0.393594023
     0.652000452  0.125000000  0.393594023
     0.250000000  0.250000000  0.458289049
     0.250000000  0.250000000  0.541710951
     0.597999548  0.125000000  0.500000000
     0.402000452  0.125000000  0.500000000
     0.500741738  0.251373525  0.565249602
     0.499125970  0.248430626  0.648287452
     0.350242985  0.124918128  0.606846442
     0.651012287  0.125185125  0.606912983
     0.250310268  0.249985933  0.671530308
     0.250696189  0.250246931  0.755742290
     0.594578165  0.124797019  0.718169900
     0.406007380  0.124344726  0.718328016
     0.250000000  0.500000000  0.245477094
     0.250000000  0.500000000  0.328898996
     0.597999548  0.375000000  0.287188045
     0.402000452  0.375000000  0.287188045
     0.500000000  0.500000000  0.351883072
     0.500000000  0.500000000  0.435304973
     0.347999548  0.375000000  0.393594023
     0.652000452  0.375000000  0.393594023
     0.250000000  0.500000000  0.458289049
     0.250000000  0.500000000  0.541710951
     0.597999548  0.375000000  0.500000000
     0.402000452  0.375000000  0.500000000
     0.500907707  0.499897338  0.565520620
     0.499945957  0.500351109  0.649525778
     0.350131684  0.375057394  0.607190442
     0.651263466  0.374989739  0.607526633
     0.250216959  0.500342565  0.671574508
     0.252067876  0.500246127  0.755740575
     0.596688626  0.371476091  0.714507138
     0.406527982  0.374096473  0.717865471

  ion indices of the primitive-cell ions
   primitive index   ion index
                 1           1
                 2           2
                 3           3
                 4           4
                 5           5
                 6           6
                 7           7
                 8           8
                 9           9
                10          10
                11          11
                12          12
                13          13
                14          14
                15          15
                16          16
                17          17
                18          18
                19          19
                20          20
                21          21
                22          22
                23          23
                24          24
                25          25
                26          26
                27          27
                28          28
                29          29
                30          30
                31          31
                32          32
                33          33
                34          34
                35          35
                36          36
                37          37
                38          38
                39          39
                40          40
                41          41
                42          42
                43          43
                44          44
                45          45
                46          46
                47          47
                48          48
                49          49
                50          50
                51          51
                52          52
                53          53
                54          54
                55          55
                56          56
                57          57
                58          58
                59          59
                60          60
                61          61
                62          62
                63          63
                64          64
                65          65
                66          66
                67          67
                68          68
                69          69
                70          70
                71          71
                72          72
                73          73
                74          74
                75          75
                76          76
                77          77
                78          78
                79          79
                80          80
                81          81
                82          82
                83          83
                84          84
                85          85
                86          86
                87          87
                88          88
                89          89
                90          90
                91          91
                92          92
                93          93
                94          94
                95          95
                96          96
                97          97
                98          98
                99          99
               100         100
               101         101
               102         102
               103         103
               104         104
               105         105
               106         106
               107         107
               108         108
               109         109
               110         110
               111         111
               112         112
               113         113
               114         114
               115         115
               116         116
               117         117
               118         118
               119         119
               120         120
               121         121
               122         122
               123         123
               124         124
               125         125
               126         126
               127         127
               128         128
               129         129
               130         130
               131         131
               132         132
               133         133
               134         134
               135         135
               136         136
               137         137
               138         138
               139         139
               140         140
               141         141
               142         142
               143         143
               144         144
               145         145
               146         146
               147         147
               148         148
               149         149
               150         150
               151         151
               152         152
               153         153
               154         154
               155         155
               156         156
               157         157
               158         158
               159         159
               160         160
               161         161
               162         162
               163         163
               164         164
               165         165
               166         166
               167         167
               168         168
               169         169
               170         170
               171         171
               172         172
               173         173
               174         174
               175         175
               176         176
               177         177
               178         178
               179         179
               180         180
               181         181
               182         182
               183         183
               184         184
               185         185
               186         186
               187         187
               188         188
               189         189
               190         190
               191         191
               192         192
               193         193
               194         194
               195         195
               196         196
               197         197
               198         198
               199         199
               200         200
               201         201
               202         202
               203         203
               204         204
               205         205
               206         206
               207         207
               208         208
               209         209
               210         210
               211         211
               212         212
               213         213
               214         214
               215         215
               216         216
               217         217
               218         218
               219         219
               220         220
               221         221
               222         222
               223         223
               224         224
               225         225
               226         226
               227         227
               228         228
               229         229
               230         230
               231         231
               232         232
               233         233
               234         234
               235         235
               236         236
               237         237
               238         238
               239         239
               240         240

----------------------------------------------------------------------------------------

 
 
 KPOINTS: pymatgen v2020.8.13 with grid density = 

Automatic generation of k-mesh.
 Grid dimensions read from file:
 generate k-points for:    2    2    1

 Generating k-lattice:

  Cartesian coordinates                     Fractional coordinates (reciprocal lattice)
     0.038449766  0.000000000  0.000000000     0.500000000  0.000000000  0.000000000
     0.000000000  0.042264076  0.000000000     0.000000000  0.500000000  0.000000000
     0.000000000  0.000000000  0.032730279     0.000000000  0.000000000  1.000000000

  Length of vectors
     0.038449766  0.042264076  0.032730279

  Shift w.r.t. Gamma in fractional coordinates (k-lattice)
     0.000000000  0.000000000  0.000000000

 
 Subroutine IBZKPT returns following result:
 ===========================================
 
 Found      4 irreducible k-points:
 
 Following reciprocal coordinates:
            Coordinates               Weight
  0.000000  0.000000  0.000000      1.000000
  0.500000  0.000000  0.000000      1.000000
  0.000000  0.500000  0.000000      1.000000
  0.500000  0.500000  0.000000      1.000000
 
 Following cartesian coordinates:
            Coordinates               Weight
  0.000000  0.000000  0.000000      1.000000
  0.038450  0.000000  0.000000      1.000000
  0.000000  0.042264  0.000000      1.000000
  0.038450  0.042264  0.000000      1.000000
 


--------------------------------------------------------------------------------------------------------




 Dimension of arrays:
   k-points           NKPTS =      4   k-points in BZ     NKDIM =      4   number of bands    NBANDS=   1064
   number of dos      NEDOS =    301   number of ions     NIONS =    240
   non local maximal  LDIM  =      6   non local SUM 2l+1 LMDIM =     18
   total plane-waves  NPLWV = ******
   max r-space proj   IRMAX =      1   max aug-charges    IRDMAX=  21607
   dimension x,y,z NGX =   108 NGY =   96 NGZ =  250
   dimension x,y,z NGXF=   216 NGYF=  192 NGZF=  500
   support grid    NGXF=   216 NGYF=  192 NGZF=  500
   ions per type =              80 160
   NGX,Y,Z   is equivalent  to a cutoff of  13.81, 13.49, 13.60 a.u.
   NGXF,Y,Z  is equivalent  to a cutoff of  27.61, 26.98, 27.21 a.u.

 SYSTEM =  TiO2                                    
 POSCAR =  Ti  O                                   

--------------------------------------------------------------------------------------------------------


  energy-cutoff  :      600.00
  volume of cell :     4700.30
      direct lattice vectors                 reciprocal lattice vectors
    13.003980404  0.000000000  0.000000000     0.076899531  0.000000000  0.000000000
     0.000000000 11.830378115  0.000000000     0.000000000  0.084528152  0.000000000
     0.000000000  0.000000000 30.552748813     0.000000000  0.000000000  0.032730279

  length of vectors
    13.003980404 11.830378115 30.552748813     0.076899531  0.084528152  0.032730279


 
 k-points in units of 2pi/SCALE and weight: pymatgen v2020.8.13 with grid density = 
   0.00000000  0.00000000  0.00000000       0.250
   0.03844977  0.00000000  0.00000000       0.250
   0.00000000  0.04226408  0.00000000       0.250
   0.03844977  0.04226408  0.00000000       0.250
 
 k-points in reciprocal lattice and weights: pymatgen v2020.8.13 with grid density = 
   0.00000000  0.00000000  0.00000000       0.250
   0.50000000  0.00000000  0.00000000       0.250
   0.00000000  0.50000000  0.00000000       0.250
   0.50000000  0.50000000  0.00000000       0.250
 
 position of ions in fractional coordinates (direct lattice) 
   0.75000000  0.62500000  0.28718805
   0.00000000  0.75000000  0.28718805
   0.00000000  0.62500000  0.39359402
   0.75000000  0.75000000  0.39359402
   0.75000000  0.62500000  0.50000000
   0.00000000  0.75000000  0.50000000
   0.00699377  0.62507399  0.60404620
   0.75613356  0.75011442  0.61020798
   0.75075975  0.62579785  0.71910227
   0.99997867  0.75034200  0.70817763
   0.75000000  0.87500000  0.28718805
   0.00000000  0.00000000  0.28718805
   0.00000000  0.87500000  0.39359402
   0.75000000  0.00000000  0.39359402
   0.75000000  0.87500000  0.50000000
   0.00000000  0.00000000  0.50000000
   0.00710513  0.87504908  0.60410150
   0.75570008  0.00005013  0.61052027
   0.74962885  0.87494019  0.72016833
   0.00024836  0.99994558  0.70814481
   0.75000000  0.12500000  0.28718805
   0.00000000  0.25000000  0.28718805
   0.00000000  0.12500000  0.39359402
   0.75000000  0.25000000  0.39359402
   0.75000000  0.12500000  0.50000000
   0.00000000  0.25000000  0.50000000
   0.00727216  0.12496790  0.60411088
   0.75602066  0.24986932  0.61014030
   0.74959090  0.12421686  0.72017428
   0.00019211  0.24963116  0.70816876
   0.75000000  0.37500000  0.28718805
   0.00000000  0.50000000  0.28718805
   0.00000000  0.37500000  0.39359402
   0.75000000  0.50000000  0.39359402
   0.75000000  0.37500000  0.50000000
   0.00000000  0.50000000  0.50000000
   0.00698499  0.37498253  0.60402835
   0.75636008  0.50000858  0.61037128
   0.75144195  0.37322288  0.71913683
   0.00082241  0.50012569  0.70810968
   0.25000000  0.62500000  0.28718805
   0.50000000  0.75000000  0.28718805
   0.50000000  0.62500000  0.39359402
   0.25000000  0.75000000  0.39359402
   0.25000000  0.62500000  0.50000000
   0.50000000  0.75000000  0.50000000
   0.50716286  0.62267484  0.60537012
   0.25614605  0.74999221  0.61046044
   0.25033670  0.62532280  0.72006927
   0.50075861  0.75012835  0.70687855
   0.25000000  0.87500000  0.28718805
   0.50000000  0.00000000  0.28718805
   0.50000000  0.87500000  0.39359402
   0.25000000  0.00000000  0.39359402
   0.25000000  0.87500000  0.50000000
   0.50000000  0.00000000  0.50000000
   0.50708362  0.87402721  0.60302733
   0.25600415  0.99999008  0.61057697
   0.25103965  0.87516305  0.72026205
   0.49948605  0.99997410  0.70712477
   0.25000000  0.12500000  0.28718805
   0.50000000  0.25000000  0.28718805
   0.50000000  0.12500000  0.39359402
   0.25000000  0.25000000  0.39359402
   0.25000000  0.12500000  0.50000000
   0.50000000  0.25000000  0.50000000
   0.50694778  0.12615805  0.60313570
   0.25605942  0.25013916  0.61056505
   0.25082875  0.12504089  0.72022821
   0.50066299  0.24974220  0.70724976
   0.25000000  0.37500000  0.28718805
   0.50000000  0.50000000  0.28718805
   0.50000000  0.37500000  0.39359402
   0.25000000  0.50000000  0.39359402
   0.25000000  0.37500000  0.50000000
   0.50000000  0.50000000  0.50000000
   0.50713444  0.37736486  0.60555742
   0.25570816  0.50006587  0.61060219
   0.25032670  0.37502547  0.72020354
   0.50075688  0.49947088  0.71207448
   0.75000000  0.75000000  0.24547709
   0.75000000  0.75000000  0.32889900
   0.09799955  0.62500000  0.28718805
   0.90200045  0.62500000  0.28718805
   0.00000000  0.75000000  0.35188307
   0.00000000  0.75000000  0.43530497
   0.84799955  0.62500000  0.39359402
   0.15200045  0.62500000  0.39359402
   0.75000000  0.75000000  0.45828905
   0.75000000  0.75000000  0.54171095
   0.09799955  0.62500000  0.50000000
   0.90200045  0.62500000  0.50000000
   0.00061564  0.75015172  0.56532443
   0.99988005  0.74984903  0.64906790
   0.85090617  0.62529090  0.60656214
   0.15046996  0.62520449  0.60703000
   0.75394098  0.75090079  0.67140448
   0.74849508  0.74891096  0.75555923
   0.09458366  0.62512715  0.71879181
   0.90625156  0.62428517  0.71968692
   0.75000000  0.00000000  0.24547709
   0.75000000  0.00000000  0.32889900
   0.09799955  0.87500000  0.28718805
   0.90200045  0.87500000  0.28718805
   0.00000000  0.00000000  0.35188307
   0.00000000  0.00000000  0.43530497
   0.84799955  0.87500000  0.39359402
   0.15200045  0.87500000  0.39359402
   0.75000000  0.00000000  0.45828905
   0.75000000  0.00000000  0.54171095
   0.09799955  0.87500000  0.50000000
   0.90200045  0.87500000  0.50000000
   0.00068238  0.00002681  0.56533863
   0.00024777  0.00001650  0.64904057
   0.85068890  0.87551630  0.60687766
   0.15046351  0.87488636  0.60712145
   0.75090592  0.00004246  0.67170693
   0.75010276  0.99977750  0.75586992
   0.09438287  0.87454938  0.71855259
   0.90626045  0.87502186  0.71916121
   0.75000000  0.25000000  0.24547709
   0.75000000  0.25000000  0.32889900
   0.09799955  0.12500000  0.28718805
   0.90200045  0.12500000  0.28718805
   0.00000000  0.25000000  0.35188307
   0.00000000  0.25000000  0.43530497
   0.84799955  0.12500000  0.39359402
   0.15200045  0.12500000  0.39359402
   0.75000000  0.25000000  0.45828905
   0.75000000  0.25000000  0.54171095
   0.09799955  0.12500000  0.50000000
   0.90200045  0.12500000  0.50000000
   0.00059446  0.24988418  0.56533152
   0.00004601  0.25019203  0.64907360
   0.85062390  0.12473347  0.60696854
   0.15046052  0.12503226  0.60702845
   0.75311417  0.24979590  0.67144036
   0.74929947  0.25063107  0.75550005
   0.09425077  0.12532659  0.71867854
   0.90620609  0.12497967  0.71896037
   0.75000000  0.50000000  0.24547709
   0.75000000  0.50000000  0.32889900
   0.09799955  0.37500000  0.28718805
   0.90200045  0.37500000  0.28718805
   0.00000000  0.50000000  0.35188307
   0.00000000  0.50000000  0.43530497
   0.84799955  0.37500000  0.39359402
   0.15200045  0.37500000  0.39359402
   0.75000000  0.50000000  0.45828905
   0.75000000  0.50000000  0.54171095
   0.09799955  0.37500000  0.50000000
   0.90200045  0.37500000  0.50000000
   0.00071184  0.50002466  0.56531135
   0.00009354  0.50004005  0.64900946
   0.85089044  0.37471754  0.60658978
   0.15048126  0.37497711  0.60700889
   0.75544612  0.50006550  0.67126434
   0.73960578  0.49985970  0.75561027
   0.09450081  0.37509318  0.71878646
   0.90628780  0.37572457  0.71966235
   0.25000000  0.75000000  0.24547709
   0.25000000  0.75000000  0.32889900
   0.59799955  0.62500000  0.28718805
   0.40200045  0.62500000  0.28718805
   0.50000000  0.75000000  0.35188307
   0.50000000  0.75000000  0.43530497
   0.34799955  0.62500000  0.39359402
   0.65200045  0.62500000  0.39359402
   0.25000000  0.75000000  0.45828905
   0.25000000  0.75000000  0.54171095
   0.59799955  0.62500000  0.50000000
   0.40200045  0.62500000  0.50000000
   0.50081705  0.74879458  0.56513612
   0.49805871  0.75163184  0.64799470
   0.35007283  0.62491974  0.60698388
   0.65128939  0.62530994  0.60754800
   0.25129976  0.74973426  0.67156324
   0.25092366  0.74984139  0.75582603
   0.59721886  0.62983677  0.71350702
   0.40756728  0.62564152  0.71923970
   0.25000000  0.00000000  0.24547709
   0.25000000  0.00000000  0.32889900
   0.59799955  0.87500000  0.28718805
   0.40200045  0.87500000  0.28718805
   0.50000000  0.00000000  0.35188307
   0.50000000  0.00000000  0.43530497
   0.34799955  0.87500000  0.39359402
   0.65200045  0.87500000  0.39359402
   0.25000000  0.00000000  0.45828905
   0.25000000  0.00000000  0.54171095
   0.59799955  0.87500000  0.50000000
   0.40200045  0.87500000  0.50000000
   0.50041185  0.00015359  0.56485956
   0.50031316  0.99995419  0.64825640
   0.35014573  0.87525931  0.60669877
   0.65097679  0.87485056  0.60693782
   0.25039803  0.99997065  0.67153768
   0.24974019  0.00004527  0.75578652
   0.59453048  0.87490959  0.71812534
   0.40609355  0.87599268  0.71846148
   0.25000000  0.25000000  0.24547709
   0.25000000  0.25000000  0.32889900
   0.59799955  0.12500000  0.28718805
   0.40200045  0.12500000  0.28718805
   0.50000000  0.25000000  0.35188307
   0.50000000  0.25000000  0.43530497
   0.34799955  0.12500000  0.39359402
   0.65200045  0.12500000  0.39359402
   0.25000000  0.25000000  0.45828905
   0.25000000  0.25000000  0.54171095
   0.59799955  0.12500000  0.50000000
   0.40200045  0.12500000  0.50000000
   0.50074174  0.25137352  0.56524960
   0.49912597  0.24843063  0.64828745
   0.35024299  0.12491813  0.60684644
   0.65101229  0.12518512  0.60691298
   0.25031027  0.24998593  0.67153031
   0.25069619  0.25024693  0.75574229
   0.59457816  0.12479702  0.71816990
   0.40600738  0.12434473  0.71832802
   0.25000000  0.50000000  0.24547709
   0.25000000  0.50000000  0.32889900
   0.59799955  0.37500000  0.28718805
   0.40200045  0.37500000  0.28718805
   0.50000000  0.50000000  0.35188307
   0.50000000  0.50000000  0.43530497
   0.34799955  0.37500000  0.39359402
   0.65200045  0.37500000  0.39359402
   0.25000000  0.50000000  0.45828905
   0.25000000  0.50000000  0.54171095
   0.59799955  0.37500000  0.50000000
   0.40200045  0.37500000  0.50000000
   0.50090771  0.49989734  0.56552062
   0.49994596  0.50035111  0.64952578
   0.35013168  0.37505739  0.60719044
   0.65126347  0.37498974  0.60752663
   0.25021696  0.50034256  0.67157451
   0.25206788  0.50024613  0.75574058
   0.59668863  0.37147609  0.71450714
   0.40652798  0.37409647  0.71786547
 
 position of ions in cartesian coordinates  (Angst):
   9.75298530  7.39398632  8.77438420
   0.00000000  8.87278359  8.77438420
   0.00000000  7.39398632 12.02537931
   9.75298530  8.87278359 12.02537931
   9.75298530  7.39398632 15.27637441
   0.00000000  8.87278359 15.27637441
   0.09094689  7.39486160 18.45527187
   9.83274596  8.87413724 18.64353105
   9.76286511  7.40342515 21.97055091
  13.00370307  8.87682958 21.63677314
   9.75298530 10.35158085  8.77438420
   0.00000000  0.00000000  8.77438420
   0.00000000 10.35158085 12.02537931
   9.75298530  0.00000000 12.02537931
   9.75298530 10.35158085 15.27637441
   0.00000000  0.00000000 15.27637441
   0.09239494 10.35216146 18.45696150
   9.82710902  0.00059303 18.65307254
   9.74815887 10.35087331 22.00312210
   0.00322966 11.82973431 21.63577063
   9.75298530  1.47879726  8.77438420
   0.00000000  2.95759453  8.77438420
   0.00000000  1.47879726 12.02537931
   9.75298530  2.95759453 12.02537931
   9.75298530  1.47879726 15.27637441
   0.00000000  2.95759453 15.27637441
   0.09456703  1.47841745 18.45724791
   9.83127784  2.95604858 18.64146339
   9.74766532  1.46953241 22.00330383
   0.00249813  2.95323105 21.63650235
   9.75298530  4.43639179  8.77438420
   0.00000000  5.91518906  8.77438420
   0.00000000  4.43639179 12.02537931
   9.75298530  5.91518906 12.02537931
   9.75298530  4.43639179 15.27637441
   0.00000000  5.91518906 15.27637441
   0.09083263  4.43618510 18.45472645
   9.83569172  5.91529053 18.64852034
   9.77173635  4.41536785 21.97160699
   0.01069464  5.91667606 21.63469725
   3.25099510  7.39398632  8.77438420
   6.50199020  8.87278359  8.77438420
   6.50199020  7.39398632 12.02537931
   3.25099510  8.87278359 12.02537931
   3.25099510  7.39398632 15.27637441
   6.50199020  8.87278359 15.27637441
   6.59513585  7.36647884 18.49572115
   3.33091824  8.87269145 18.65124436
   3.25537352  7.39780518 22.00009556
   6.51185509  8.87430202 21.59708263
   3.25099510 10.35158085  8.77438420
   6.50199020  0.00000000  8.77438420
   6.50199020 10.35158085 12.02537931
   3.25099510  0.00000000 12.02537931
   3.25099510 10.35158085 15.27637441
   6.50199020  0.00000000 15.27637441
   6.59410543 10.34007233 18.42414243
   3.32907292 11.83026073 18.65480479
   3.26451474 10.35350983 22.00598536
   6.49530686 11.83007168 21.60460542
   3.25099510  1.47879726  8.77438420
   6.50199020  2.95759453  8.77438420
   6.50199020  1.47879726 12.02537931
   3.25099510  2.95759453 12.02537931
   3.25099510  1.47879726 15.27637441
   6.50199020  2.95759453 15.27637441
   6.59233900  1.49249738 18.42745356
   3.32979166  2.95924089 18.65444052
   3.26177216  1.47928099 22.00495170
   6.51061171  2.95454470 21.60842435
   3.25099510  4.43639179  8.77438420
   6.50199020  5.91518906  8.77438420
   6.50199020  4.43639179 12.02537931
   3.25099510  5.91518906 12.02537931
   3.25099510  4.43639179 15.27637441
   6.50199020  5.91518906 15.27637441
   6.59476626  4.46436899 18.50144380
   3.32522396  5.91596833 18.65557521
   3.25524352  4.43669306 22.00419772
   6.51183261  5.90892941 21.75583268
   9.75298530  8.87278359  7.50000000
   9.75298530  8.87278359 10.04876841
   1.27438420  7.39398632  8.77438420
  11.72959620  7.39398632  8.77438420
   0.00000000  8.87278359 10.75099510
   0.00000000  8.87278359 13.29976351
  11.02736951  7.39398632 12.02537931
   1.97661090  7.39398632 12.02537931
   9.75298530  8.87278359 14.00199020
   9.75298530  8.87278359 16.55075861
   1.27438420  7.39398632 15.27637441
  11.72959620  7.39398632 15.27637441
   0.00800582  8.87457855 17.27221528
  13.00242064  8.87099750 19.83080842
  11.06516712  7.39742776 18.53214063
   1.95670836  7.39640547 18.54643507
   9.80423374  8.88344030 20.51325252
   9.73341538  8.85989979 23.08441130
   1.22996411  7.39549050 21.96106554
  11.78487752  7.38552966 21.98841374
   9.75298530  0.00000000  7.50000000
   9.75298530  0.00000000 10.04876841
   1.27438420 10.35158085  8.77438420
  11.72959620 10.35158085  8.77438420
   0.00000000  0.00000000 10.75099510
   0.00000000  0.00000000 13.29976351
  11.02736951 10.35158085 12.02537931
   1.97661090 10.35158085 12.02537931
   9.75298530  0.00000000 14.00199020
   9.75298530  0.00000000 16.55075861
   1.27438420 10.35158085 15.27637441
  11.72959620 10.35158085 15.27637441
   0.00887372  0.00031721 17.27264931
   0.00322194  0.00019517 19.82997347
  11.06234175 10.35768882 18.54178059
   1.95662453 10.35023642 18.54922926
   9.76476586  0.00050228 20.52249316
   9.75432155 11.82774590 23.09390372
   1.22735300 10.34624988 21.95375665
  11.78499309 10.35183943 21.97235195
   9.75298530  2.95759453  7.50000000
   9.75298530  2.95759453 10.04876841
   1.27438420  1.47879726  8.77438420
  11.72959620  1.47879726  8.77438420
   0.00000000  2.95759453 10.75099510
   0.00000000  2.95759453 13.29976351
  11.02736951  1.47879726 12.02537931
   1.97661090  1.47879726 12.02537931
   9.75298530  2.95759453 14.00199020
   9.75298530  2.95759453 16.55075861
   1.27438420  1.47879726 15.27637441
  11.72959620  1.47879726 15.27637441
   0.00773032  2.95622432 17.27243181
   0.00059834  2.95986629 19.83098254
  11.06149647  1.47564413 18.54455729
   1.95658560  1.47917888 18.54638761
   9.79348197  2.95518000 20.51434856
   9.74387559  2.96506033 23.08260339
   1.22563516  1.48266095 21.95760499
  11.78428625  1.47855672 21.96621551
   9.75298530  5.91518906  7.50000000
   9.75298530  5.91518906 10.04876841
   1.27438420  4.43639179  8.77438420
  11.72959620  4.43639179  8.77438420
   0.00000000  5.91518906 10.75099510
   0.00000000  5.91518906 13.29976351
  11.02736951  4.43639179 12.02537931
   1.97661090  4.43639179 12.02537931
   9.75298530  5.91518906 14.00199020
   9.75298530  5.91518906 16.55075861
   1.27438420  4.43639179 15.27637441
  11.72959620  4.43639179 15.27637441
   0.00925671  5.91548077 17.27181553
   0.00121636  5.91566283 19.82902292
  11.06496262  4.43305013 18.53298509
   1.95685532  4.43612102 18.54579025
   9.82380649  5.91596391 20.50897081
   9.61781910  5.91352924 23.08597082
   1.22888671  4.43749420 21.96090208
  11.78534877  4.44496372 21.98766316
   3.25099510  8.87278359  7.50000000
   3.25099510  8.87278359 10.04876841
   7.77637441  7.39398632  8.77438420
   5.22760600  7.39398632  8.77438420
   6.50199020  8.87278359 10.75099510
   6.50199020  8.87278359 13.29976351
   4.52537931  7.39398632 12.02537931
   8.47860110  7.39398632 12.02537931
   3.25099510  8.87278359 14.00199020
   3.25099510  8.87278359 16.55075861
   7.77637441  7.39398632 15.27637441
   5.22760600  7.39398632 15.27637441
   6.51261509  8.85852297 17.26646183
   6.47674572  8.89208887 19.79801916
   4.55234026  7.39303677 18.54502596
   8.46935443  7.39765300 18.56226153
   3.26789714  8.86963975 20.51810297
   3.26300633  8.87090715 23.09256279
   7.76622234  7.45120713 21.79960087
   5.29999692  7.40157577 21.97474979
   3.25099510  0.00000000  7.50000000
   3.25099510  0.00000000 10.04876841
   7.77637441 10.35158085  8.77438420
   5.22760600 10.35158085  8.77438420
   6.50199020  0.00000000 10.75099510
   6.50199020  0.00000000 13.29976351
   4.52537931 10.35158085 12.02537931
   8.47860110 10.35158085 12.02537931
   3.25099510  0.00000000 14.00199020
   3.25099510  0.00000000 16.55075861
   7.77637441 10.35158085 15.27637441
   5.22760600 10.35158085 15.27637441
   6.50734593  0.00181707 17.25801237
   6.50606251 11.82983615 19.80601499
   4.55328822 10.35464855 18.53631520
   8.46528939 10.34981297 18.54361873
   3.25617109 11.83003088 20.51732219
   3.24761649  0.00053554 23.09135573
   7.73126275 10.35051129 21.94070328
   5.28083262 10.36332466 21.95097320
   3.25099510  2.95759453  7.50000000
   3.25099510  2.95759453 10.04876841
   7.77637441  1.47879726  8.77438420
   5.22760600  1.47879726  8.77438420
   6.50199020  2.95759453 10.75099510
   6.50199020  2.95759453 13.29976351
   4.52537931  1.47879726 12.02537931
   8.47860110  1.47879726 12.02537931
   3.25099510  2.95759453 14.00199020
   3.25099510  2.95759453 16.55075861
   7.77637441  1.47879726 15.27637441
   5.22760600  1.47879726 15.27637441
   6.51163575  2.97384384 17.26992911
   6.49062433  2.93902824 19.80696368
   4.55455292  1.47782869 18.54082692
   8.46575102  1.48098736 18.54285993
   3.25502983  2.95742811 20.51709683
   3.26004833  2.96051581 23.09000436
   7.73188280  1.47639592 21.94206457
   5.27971202  1.47104512 21.94689544
   3.25099510  5.91518906  7.50000000
   3.25099510  5.91518906 10.04876841
   7.77637441  4.43639179  8.77438420
   5.22760600  4.43639179  8.77438420
   6.50199020  5.91518906 10.75099510
   6.50199020  5.91518906 13.29976351
   4.52537931  4.43639179 12.02537931
   8.47860110  4.43639179 12.02537931
   3.25099510  5.91518906 14.00199020
   3.25099510  5.91518906 16.55075861
   7.77637441  4.43639179 15.27637441
   5.22760600  4.43639179 15.27637441
   6.51379401  5.91397452 17.27820944
   6.50128743  5.91934280 19.84479795
   4.55310556  4.43707079 18.55133706
   8.46901735  4.43627040 18.56160861
   3.25381643  5.91924173 20.51844726
   3.27788571  5.91810083 23.08995196
   7.75932721  4.39470262 21.83015712
   5.28648191  4.42570273 21.93276342
 


--------------------------------------------------------------------------------------------------------

--------------------------------------- Iteration      FINAL  ---------------------------------------


--------------------OUTCAR has been truncated-------------------------


--------------------OUTCAR has been truncated-------------------------


--------------------OUTCAR has been truncated-------------------------


--------------------OUTCAR has been truncated-------------------------


--------------------OUTCAR has been truncated-------------------------


--------------------OUTCAR has been truncated-------------------------


--------------------OUTCAR has been truncated-------------------------


--------------------OUTCAR has been truncated-------------------------


--------------------OUTCAR has been truncated-------------------------


--------------------OUTCAR has been truncated-------------------------


  Hirshfeld charges:
            ion         q(e)     
   ------------------------------
      1     Ti          0.744
      2     Ti          0.917
      3     Ti          0.811
      4     Ti          0.799
      5     Ti          0.794
      6     Ti          0.809
      7     Ti          0.810
      8     Ti          0.794
      9     Ti          0.779
     10     Ti          0.866
     11     Ti          0.744
     12     Ti          0.917
     13     Ti          0.811
     14     Ti          0.799
     15     Ti          0.794
     16     Ti          0.810
     17     Ti          0.810
     18     Ti          0.794
     19     Ti          0.786
     20     Ti          0.866
     21     Ti          0.744
     22     Ti          0.917
     23     Ti          0.811
     24     Ti          0.799
     25     Ti          0.794
     26     Ti          0.809
     27     Ti          0.810
     28     Ti          0.795
     29     Ti          0.787
     30     Ti          0.866
     31     Ti          0.744
     32     Ti          0.917
     33     Ti          0.811
     34     Ti          0.799
     35     Ti          0.794
     36     Ti          0.809
     37     Ti          0.810
     38     Ti          0.792
     39     Ti          0.780
     40     Ti          0.864
     41     Ti          0.744
     42     Ti          0.917
     43     Ti          0.811
     44     Ti          0.799
     45     Ti          0.794
     46     Ti          0.808
     47     Ti          0.810
     48     Ti          0.794
     49     Ti          0.786
     50     Ti          0.861
     51     Ti          0.744
     52     Ti          0.917
     53     Ti          0.811
     54     Ti          0.799
     55     Ti          0.794
     56     Ti          0.808
     57     Ti          0.811
     58     Ti          0.794
     59     Ti          0.787
     60     Ti          0.861
     61     Ti          0.744
     62     Ti          0.917
     63     Ti          0.811
     64     Ti          0.799
     65     Ti          0.794
     66     Ti          0.809
     67     Ti          0.811
     68     Ti          0.794
     69     Ti          0.787
     70     Ti          0.864
     71     Ti          0.744
     72     Ti          0.917
     73     Ti          0.811
     74     Ti          0.799
     75     Ti          0.794
     76     Ti          0.811
     77     Ti          0.810
     78     Ti          0.793
     79     Ti          0.786
     80     Ti          0.911
     81     O          -0.446
     82     O          -0.422
     83     O          -0.404
     84     O          -0.404
     85     O          -0.385
     86     O          -0.397
     87     O          -0.404
     88     O          -0.404
     89     O          -0.408
     90     O          -0.410
     91     O          -0.402
     92     O          -0.401
     93     O          -0.392
     94     O          -0.387
     95     O          -0.404
     96     O          -0.400
     97     O          -0.413
     98     O          -0.411
     99     O          -0.419
    100     O          -0.419
    101     O          -0.446
    102     O          -0.422
    103     O          -0.404
    104     O          -0.404
    105     O          -0.385
    106     O          -0.397
    107     O          -0.404
    108     O          -0.404
    109     O          -0.408
    110     O          -0.410
    111     O          -0.402
    112     O          -0.401
    113     O          -0.392
    114     O          -0.387
    115     O          -0.404
    116     O          -0.400
    117     O          -0.413
    118     O          -0.409
    119     O          -0.418
    120     O          -0.417
    121     O          -0.446
    122     O          -0.422
    123     O          -0.404
    124     O          -0.404
    125     O          -0.385
    126     O          -0.397
    127     O          -0.404
    128     O          -0.404
    129     O          -0.408
    130     O          -0.410
    131     O          -0.402
    132     O          -0.401
    133     O          -0.392
    134     O          -0.387
    135     O          -0.404
    136     O          -0.400
    137     O          -0.413
    138     O          -0.410
    139     O          -0.418
    140     O          -0.418
    141     O          -0.446
    142     O          -0.422
    143     O          -0.404
    144     O          -0.404
    145     O          -0.385
    146     O          -0.397
    147     O          -0.404
    148     O          -0.404
    149     O          -0.408
    150     O          -0.410
    151     O          -0.402
    152     O          -0.401
    153     O          -0.392
    154     O          -0.388
    155     O          -0.404
    156     O          -0.400
    157     O          -0.414
    158     O          -0.423
    159     O          -0.419
    160     O          -0.419
    161     O          -0.446
    162     O          -0.422
    163     O          -0.404
    164     O          -0.404
    165     O          -0.385
    166     O          -0.397
    167     O          -0.404
    168     O          -0.404
    169     O          -0.408
    170     O          -0.410
    171     O          -0.402
    172     O          -0.401
    173     O          -0.393
    174     O          -0.387
    175     O          -0.404
    176     O          -0.400
    177     O          -0.413
    178     O          -0.409
    179     O          -0.414
    180     O          -0.415
    181     O          -0.446
    182     O          -0.422
    183     O          -0.404
    184     O          -0.404
    185     O          -0.385
    186     O          -0.397
    187     O          -0.404
    188     O          -0.404
    189     O          -0.408
    190     O          -0.410
    191     O          -0.402
    192     O          -0.402
    193     O          -0.393
    194     O          -0.388
    195     O          -0.404
    196     O          -0.401
    197     O          -0.412
    198     O          -0.409
    199     O          -0.418
    200     O          -0.420
    201     O          -0.446
    202     O          -0.422
    203     O          -0.404
    204     O          -0.404
    205     O          -0.385
    206     O          -0.397
    207     O          -0.404
    208     O          -0.404
    209     O          -0.408
    210     O          -0.410
    211     O          -0.402
    212     O          -0.402
    213     O          -0.393
    214     O          -0.387
    215     O          -0.404
    216     O          -0.401
    217     O          -0.413
    218     O          -0.410
    219     O          -0.418
    220     O          -0.419
    221     O          -0.446
    222     O          -0.422
    223     O          -0.404
    224     O          -0.404
    225     O          -0.385
    226     O          -0.397
    227     O          -0.404
    228     O          -0.404
    229     O          -0.408
    230     O          -0.410
    231     O          -0.402
    232     O          -0.401
    233     O          -0.389
    234     O          -0.387
    235     O          -0.404
    236     O          -0.400
    237     O          -0.413
    238     O          -0.412
    239     O          -0.414
    240     O          -0.414

  Hirshfeld-I charges:
            ion         q(e)        dq(e)    
   ------------------------------------------
      1     Ti          2.213     -0.122E-04
      2     Ti          2.222     -0.259E-04
      3     Ti          2.295     -0.157E-04
[...]
      9.74767      1.46953     22.00330         0.151837      0.112435     -0.597133
      0.00250      2.95323     21.63650        -0.081492      0.110507      1.144523
      9.75299      4.43639      8.77438        -0.001322      0.000121     -3.465328
      0.00000      5.91519      8.77438         0.000674      0.000018      2.291318
      0.00000      4.43639     12.02538         0.003192      0.000075      0.482188
      9.75299      5.91519     12.02538        -0.003660      0.000495     -0.722239
      9.75299      4.43639     15.27637        -0.017073      0.027325      0.588360
      0.00000      5.91519     15.27637        -0.008422      0.001059     -0.618492
      0.09083      4.43619     18.45473        -0.641317      0.005313      0.660257
      9.83569      5.91529     18.64852        -0.397836      0.006558     -0.578984
      9.77174      4.41537     21.97161         0.168761      0.791612     -0.142112
      0.01069      5.91668     21.63470        -0.114684      0.004312      1.160269
      3.25100      7.39399      8.77438         0.001445      0.000002     -3.463854
      6.50199      8.87278      8.77438        -0.000570      0.000317      2.294604
      6.50199      7.39399     12.02538        -0.003084      0.011059      0.493738
      3.25100      8.87278     12.02538         0.004482      0.000711     -0.713541
      3.25100      7.39399     15.27637         0.032495     -0.010202      0.623268
      6.50199      8.87278     15.27637        -0.024007     -0.051968     -0.560018
      6.59514      7.36648     18.49572        -0.575685      0.520433      0.208231
      3.33092      8.87269     18.65124        -0.560749      0.036608     -0.664628
      3.25537      7.39781     22.00010        -0.167136      0.042740     -0.625356
      6.51186      8.87430     21.59708        -0.072978      0.505516      1.155550
      3.25100     10.35158      8.77438         0.001599      0.000191     -3.463753
      6.50199      0.00000      8.77438        -0.000591     -0.000088      2.295062
      6.50199     10.35158     12.02538        -0.003470      0.000566      0.497044
      3.25100      0.00000     12.02538         0.004882     -0.000016     -0.712849
      3.25100     10.35158     15.27637         0.022077      0.014874      0.626693
      6.50199      0.00000     15.27637        -0.030840      0.000358     -0.743859
      6.59411     10.34007     18.42414        -0.583411      0.192435      0.649305
      3.32907     11.83026     18.65480        -0.552130      0.005928     -0.673278
      3.26451     10.35351     22.00599        -0.111638     -0.026730     -0.684106
      6.49531     11.83007     21.60461         0.127104     -0.044312      1.161171
      3.25100      1.47880      8.77438         0.001595     -0.000069     -3.463666
      6.50199      2.95759      8.77438        -0.000612     -0.000334      2.294334
      6.50199      1.47880     12.02538        -0.003804     -0.003149      0.495577
      3.25100      2.95759     12.02538         0.004204     -0.000725     -0.711843
      3.25100      1.47880     15.27637         0.021352     -0.004427      0.634451
      6.50199      2.95759     15.27637        -0.026669      0.054746     -0.537103
      6.59234      1.49250     18.42745        -0.562749     -0.206212      0.642905
      3.32979      2.95924     18.65444        -0.561343     -0.049541     -0.704551
      3.26177      1.47928     22.00495        -0.122690     -0.061889     -0.708381
      6.51061      2.95454     21.60842         0.018419     -0.539425      0.989771
      3.25100      4.43639      8.77438         0.001378     -0.000179     -3.463753
      6.50199      5.91519      8.77438        -0.000581      0.000075      2.293891
      6.50199      4.43639     12.02538        -0.003431     -0.008503      0.492437
      3.25100      5.91519     12.02538         0.003740      0.000010     -0.712087
      3.25100      4.43639     15.27637         0.032617     -0.000366      0.630335
      6.50199      5.91519     15.27637        -0.021244     -0.002354     -0.573568
      6.59477      4.46437     18.50144        -0.572023     -0.497468      0.194376
      3.32522      5.91597     18.65558        -0.563300      0.000465     -0.707483
      3.25524      4.43669     22.00420        -0.289707      0.021329     -0.705885
      6.51183      5.90893     21.75583         0.462847      0.228904     -1.118369
      9.75299      8.87278      7.50000         0.000422     -0.000065      1.286596
      9.75299      8.87278     10.04877         0.000605     -0.000090      1.839882
      1.27438      7.39399      8.77438        -1.805336     -0.000024     -0.798456
     11.72960      7.39399      8.77438         1.804473     -0.000030     -0.798333
      0.00000      8.87278     10.75100        -0.000399     -0.000006     -1.366783
      0.00000      8.87278     13.29976         0.000514      0.000067      0.035979
     11.02737      7.39399     12.02538         0.565764     -0.000153      0.062784
      1.97661      7.39399     12.02538        -0.569091      0.000075      0.061444
      9.75299      8.87278     14.00199        -0.000794     -0.000673     -0.207381
      9.75299      8.87278     16.55076         0.014930      0.001921      0.453311
      1.27438      7.39399     15.27637        -0.315126      0.001887      0.085191
     11.72960      7.39399     15.27637         0.312360      0.000810      0.101258
      0.00801      8.87458     17.27222        -0.008544     -0.000849     -0.569682
     13.00242      8.87100     19.83081         0.020532      0.003508     -0.938401
     11.06517      7.39743     18.53214         0.534667     -0.006664     -0.046526
      1.95671      7.39641     18.54644         0.577200     -0.004536      0.032111
      9.80423      8.88344     20.51325        -0.023989      0.053189      0.465374
      9.73342      8.85990     23.08441         0.001236      0.170465      0.838553
      1.22996      7.39549     21.96107         0.173615      0.020658      0.071368
     11.78488      7.38553     21.98841         0.017144      0.037134      0.057076
      9.75299      0.00000      7.50000         0.000434      0.000084      1.286634
      9.75299      0.00000     10.04877         0.000677      0.000123      1.839934
      1.27438     10.35158      8.77438        -1.805382     -0.000015     -0.798454
     11.72960     10.35158      8.77438         1.804488      0.000000     -0.798335
      0.00000      0.00000     10.75100        -0.000411      0.000063     -1.366747
      0.00000      0.00000     13.29976         0.000411      0.000145      0.036615
     11.02737     10.35158     12.02538         0.565748      0.000122      0.062838
      1.97661     10.35158     12.02538        -0.569133     -0.000217      0.061532
      9.75299      0.00000     14.00199        -0.001353      0.002670     -0.206647
      9.75299      0.00000     16.55076         0.008343      0.004797      0.454911
      1.27438     10.35158     15.27637        -0.313880     -0.000255      0.082870
     11.72960     10.35158     15.27637         0.311620     -0.000249      0.099356
      0.00887      0.00032     17.27265        -0.009909      0.000835     -0.569154
      0.00322      0.00020     19.82997         0.019476      0.000111     -0.924041
     11.06234     10.35769     18.54178         0.545231     -0.014199     -0.042584
      1.95662     10.35024     18.54923         0.583400     -0.005965      0.032099
      9.76477      0.00050     20.52249        -0.016496     -0.002894      0.522318
      9.75432     11.82775     23.09390        -0.017086      0.008614      0.929705
      1.22735     10.34625     21.95376         0.186059      0.033203      0.077373
     11.78499     10.35184     21.97235        -0.116685      0.025632      0.075876
      9.75299      2.95759      7.50000         0.000420      0.000056      1.286681
      9.75299      2.95759     10.04877         0.000575      0.000081      1.840439
      1.27438      1.47880      8.77438        -1.805397      0.000028     -0.798459
     11.72960      1.47880      8.77438         1.804446      0.000042     -0.798315
      0.00000      2.95759     10.75100        -0.000420     -0.000001     -1.366693
      0.00000      2.95759     13.29976         0.000251      0.000016      0.036696
     11.02737      1.47880     12.02538         0.565605      0.000311      0.062912
      1.97661      1.47880     12.02538        -0.569301      0.000047      0.061443
      9.75299      2.95759     14.00199        -0.000648      0.000759     -0.203666
      9.75299      2.95759     16.55076         0.012853      0.002872      0.463380
      1.27438      1.47880     15.27637        -0.316465      0.000930      0.082277
     11.72960      1.47880     15.27637         0.309000      0.002099      0.100230
      0.00773      2.95622     17.27243        -0.009048     -0.001135     -0.569400
      0.00060      2.95987     19.83098         0.021922     -0.001548     -0.936235
     11.06150      1.47564     18.54456         0.556015      0.005520     -0.040609
      1.95659      1.47918     18.54639         0.596014      0.011182      0.034828
      9.79348      2.95518     20.51435        -0.026950     -0.099390      0.452126
      9.74388      2.96506     23.08260        -0.030379     -0.196250      0.906271
      1.22564      1.48266     21.95760         0.200008     -0.027275      0.083822
     11.78429      1.47856     21.96622        -0.119058     -0.019650      0.076562
      9.75299      5.91519      7.50000         0.000410     -0.000088      1.286609
      9.75299      5.91519     10.04877         0.000577     -0.000110      1.839925
      1.27438      4.43639      8.77438        -1.805349     -0.000008     -0.798459
     11.72960      4.43639      8.77438         1.804431     -0.000029     -0.798319
      0.00000      5.91519     10.75100        -0.000409     -0.000058     -1.366732
      0.00000      5.91519     13.29976         0.000463     -0.000076      0.036196
     11.02737      4.43639     12.02538         0.565601     -0.000276      0.062884
      1.97661      4.43639     12.02538        -0.569258      0.000094      0.061368
      9.75299      5.91519     14.00199         0.001817     -0.002249     -0.207756
      9.75299      5.91519     16.55076         0.001096     -0.000860      0.449980
      1.27438      4.43639     15.27637        -0.317849     -0.001491      0.085013
     11.72960      4.43639     15.27637         0.310063     -0.001595      0.102129
      0.00926      5.91548     17.27182        -0.008078      0.000056     -0.570252
      0.00122      5.91566     19.82902         0.019678     -0.002239     -0.947777
     11.06496      4.43305     18.53299         0.533123      0.000459     -0.045853
      1.95686      4.43612     18.54579         0.574899      0.002244      0.032741
      9.82381      5.91596     20.50897        -0.024818     -0.023466      0.468621
      9.61782      5.91353     23.08597         0.168202     -0.013125      0.126175
      1.22889      4.43749     21.96090         0.191810     -0.028897      0.079262
     11.78535      4.44496     21.98766         0.041640     -0.048248      0.059028
      3.25100      8.87278      7.50000        -0.000369     -0.000098      1.286011
      3.25100      8.87278     10.04877        -0.000668     -0.000121      1.837552
      7.77637      7.39399      8.77438        -1.803105     -0.000307     -0.798801
      5.22761      7.39399      8.77438         1.804064     -0.000302     -0.798900
      6.50199      8.87278     10.75100         0.000477     -0.001665     -1.373876
      6.50199      8.87278     13.29976         0.002730     -0.002206      0.002200
      4.52538      7.39399     12.02538         0.563343     -0.000548      0.060638
      8.47860      7.39399     12.02538        -0.559930     -0.000806      0.061842
      3.25100      8.87278     14.00199        -0.006095     -0.000491     -0.218684
      3.25100      8.87278     16.55076         0.007513     -0.003420      0.477946
      7.77637      7.39399     15.27637        -0.277546     -0.028185      0.066542
      5.22761      7.39399     15.27637         0.304486     -0.028784      0.087594
      6.51262      8.85852     17.26646        -0.006055     -0.240280     -0.418185
      6.47675      8.89209     19.79802        -0.006756     -0.066280     -0.807554
      4.55234      7.39304     18.54503         0.647280     -0.031943     -0.017648
      8.46935      7.39765     18.56226         0.377187     -0.028672      0.029614
      3.26790      8.86964     20.51810         0.027663     -0.002906      0.627300
      3.26301      8.87091     23.09256         0.006193     -0.006209      0.869104
      7.76622      7.45121     21.79960        -0.416594     -0.737689      0.418066
      5.30000      7.40158     21.97475         0.017326     -0.288912      0.264708
      3.25100      0.00000      7.50000        -0.000359     -0.000016      1.285973
      3.25100      0.00000     10.04877        -0.000723     -0.000017      1.837194
      7.77637     10.35158      8.77438        -1.802970     -0.000117     -0.798808
      5.22761     10.35158      8.77438         1.803974     -0.000137     -0.798915
      6.50199      0.00000     10.75100         0.000527      0.000401     -1.374614
      6.50199      0.00000     13.29976         0.002503      0.000803      0.002507
      4.52538     10.35158     12.02538         0.561522     -0.000212      0.060527
      8.47860     10.35158     12.02538        -0.558146      0.000163      0.061910
      3.25100      0.00000     14.00199        -0.005217     -0.001660     -0.220858
      3.25100      0.00000     16.55076        -0.001860      0.001574      0.460963
      7.77637     10.35158     15.27637        -0.278293      0.001412      0.085226
      5.22761     10.35158     15.27637         0.300767     -0.003136      0.094782
      6.50735      0.00182     17.25801        -0.010373      0.005704     -0.510027
      6.50606     11.82984     19.80601         0.018485      0.004456     -0.987225
      4.55329     10.35465     18.53632         0.609130     -0.021925     -0.035406
      8.46529     10.34981     18.54362         0.437073     -0.004237      0.029345
      3.25617     11.83003     20.51732         0.004662      0.010662      0.640928
      3.24762      0.00054     23.09136         0.004705      0.030991      0.927631
      7.73126     10.35051     21.94070        -0.025997     -0.000629      0.014404
      5.28083     10.36332     21.95097        -0.047285     -0.129000      0.050343
      3.25100      2.95759      7.50000        -0.000346      0.000086      1.285961
      3.25100      2.95759     10.04877        -0.000641      0.000121      1.837188
      7.77637      1.47880      8.77438        -1.802964      0.000256     -0.798798
      5.22761      1.47880      8.77438         1.804008      0.000243     -0.798924
      6.50199      2.95759     10.75100         0.000510      0.001662     -1.372990
      6.50199      2.95759     13.29976         0.002737      0.002347      0.009974
      4.52538      1.47880     12.02538         0.562079      0.000168      0.060510
      8.47860      1.47880     12.02538        -0.558414      0.000405      0.062080
      3.25100      2.95759     14.00199        -0.006276      0.000523     -0.222188
      3.25100      2.95759     16.55076         0.010585      0.006196      0.483468
      7.77637      1.47880     15.27637        -0.278069      0.007053      0.086411
      5.22761      1.47880     15.27637         0.304301      0.008834      0.094732
      6.51164      2.97384     17.26993        -0.008058      0.237257     -0.423277
      6.49062      2.93903     19.80696        -0.004393      0.070389     -0.771829
      4.55455      1.47783     18.54083         0.595463      0.022972     -0.032541
      8.46575      1.48099     18.54286         0.421817      0.003310      0.026676
      3.25503      2.95743     20.51710         0.029300      0.022528      0.663921
      3.26005      2.96052     23.09000         0.042185      0.033106      0.941298
      7.73188      1.47640     21.94206        -0.034724      0.050956      0.047734
      5.27971      1.47105     21.94690        -0.056689      0.136596      0.077164
      3.25100      5.91519      7.50000        -0.000337     -0.000000      1.285975
      3.25100      5.91519     10.04877        -0.000622      0.000013      1.837327
      7.77637      4.43639      8.77438        -1.803081      0.000156     -0.798795
      5.22761      4.43639      8.77438         1.804116      0.000178     -0.798914
      6.50199      5.91519     10.75100         0.000489     -0.000390     -1.371242
      6.50199      5.91519     13.29976         0.002471     -0.000581      0.042187
      4.52538      4.43639     12.02538         0.563909      0.000590      0.060610
      8.47860      4.43639     12.02538        -0.560191      0.000252      0.062001
      3.25100      5.91519     14.00199        -0.007806      0.001884     -0.221284
      3.25100      5.91519     16.55076         0.009934     -0.001174      0.489754
      7.77637      4.43639     15.27637        -0.276662      0.022326      0.066021
      5.22761      4.43639     15.27637         0.307363      0.025494      0.086101
      6.51379      5.91397     17.27821        -0.007690     -0.007536     -0.414444
      6.50129      5.91934     19.84480        -0.081948     -0.035663      0.570505
      4.55311      4.43707     18.55134         0.643966      0.033288     -0.011797
      8.46902      4.43627     18.56161         0.376162      0.017288      0.028146
      3.25382      5.91924     20.51845         0.034603     -0.017835      0.658784
      3.27789      5.91810     23.08995         0.039692     -0.054270      0.887397
      7.75933      4.39470     21.83016        -0.374141      0.508229      0.411812
      5.28648      4.42570     21.93276         0.070714      0.288483      0.359447
 -----------------------------------------------------------------------------------
    total drift:                               -0.007707      0.000737     -0.070528


--------------------------------------------------------------------------------------------------------



  FREE ENERGIE OF THE ION-ELECTRON SYSTEM (eV)
  ---------------------------------------------------
  free  energy   TOTEN  =     -1908.74561102 eV

  energy  without entropy=    -1908.74561102  energy(sigma->0) =    -1908.74561102
 


--------------------------------------------------------------------------------------------------------


    POTLOK:  cpu time      0.2085: real time      0.2090


--------------------------------------------------------------------------------------------------------


     LOOP+:  cpu time   1609.6958: real time   1618.1014
    4ORBIT:  cpu time      0.0000: real time      0.0000

 total amount of memory used by VASP MPI-rank0   630410. kBytes
=======================================================================

   base      :      30000. kBytes
   nonl-proj :     392291. kBytes
   fftplans  :      41485. kBytes
   grid      :      57314. kBytes
   one-center:       1866. kBytes
   wavefun   :     107454. kBytes
 
  
  
 General timing and accounting informations for this job:
 ========================================================
  
                  Total CPU time used (sec):     1653.106
                            User time (sec):     1648.307
                          System time (sec):        4.800
                         Elapsed time (sec):     1662.420
  
                   Maximum memory used (kb):     1142936.
                   Average memory used (kb):          N/A
  
                          Minor page faults:        90203
                          Major page faults:           92
                 Voluntary context switches:         3032
