 vasp.6.3.0 20Jan22 (build Apr  1 2022 16:44:48) complex                         
 executed on        HPECrayEX_GCC date 2022.11.13  05:39:45
 running 1024 mpi-ranks, with    1 threads/rank
 distrk:  each k-point on 1024 cores,    1 groups
 distr:  one band on NCORE=   8 cores,  128 groups


--------------------------------------------------------------------------------------------------------


 INCAR:
   SYSTEM = MgO-rocksalt
   ISMEAR = 0
   SIGMA = 0.05
   EDIFF = 1E-6
   ALGO = ALL
   ISTART = 0
   IBRION = -1
   NSW = 0
   ISYM = 0
   DIPOL = 0.5 0.5 0.5
   IDIPOL = 3
   LDIPOL = .TRUE.
   LHFCALC = .TRUE.
   GGA = PE
   IVDW = 13
   VDW_S8 = 1.2007
   VDW_A1 = 0.4009
   VDW_A2 = 5.0293
   ENCUT = 600
   PREC = Accurate
   LASPH = .TRUE.
   LREAL = .FALSE.
   ISPIN = 1
   NELM = 200
   NELMIN = 8
   NCORE = 8
   KPAR = 1
   LWAVE = .FALSE.
   LCHARG = .FALSE.

 POTCAR:    PAW_PBE C 08Apr2002                   
 POTCAR:    PAW_PBE O 08Apr2002                   
 POTCAR:    PAW_PBE Mg_pv 13Apr2007               
 POTCAR:    PAW_PBE O 08Apr2002                   
 POTCAR:    PAW_PBE C 08Apr2002                   
   SHA256 =  253f7b50bb8d59471dbedb8285d89021f4a42ed1a2c5d38a03a736e69125dd95 C/POTCAR              
   COPYR  = (c) Copyright 08Apr2002 Georg Kresse                                                    
   COPYR  = This file is part of the software VASP. Any use, copying, and all other rights are regul
   COPYR  = If you do not have a valid VASP license, you may not use, copy or distribute this file. 
   VRHFIN =C: s2p2                                                                                  
   LEXCH  = PE                                                                                      
   EATOM  =   147.1560 eV,   10.8157 Ry                                                             
                                                                                                    
   TITEL  = PAW_PBE C 08Apr2002                                                                     
   LULTRA =        F    use ultrasoft PP ?                                                          
   IUNSCR =        1    unscreen: 0-lin 1-nonlin 2-no                                               
   RPACOR =    1.200    partial core radius                                                         
   POMASS =   12.011; ZVAL   =    4.000    mass and valenz                                          
   RCORE  =    1.500    outmost cutoff radius                                                       
   RWIGS  =    1.630; RWIGS  =    0.863    wigner-seitz radius (au A)                               
   ENMAX  =  400.000; ENMIN  =  300.000 eV                                                          
   ICORE  =        2    local potential                                                             
   LCOR   =        T    correct aug charges                                                         
   LPAW   =        T    paw PP                                                                      
   EAUG   =  644.873                                                                                
   DEXC   =    0.000                                                                                
   RMAX   =    1.529    core radius for proj-oper                                                   
   RAUG   =    1.300    factor for augmentation sphere                                              
   RDEP   =    1.501    radius for radial grids                                                     
   RDEPT  =    1.300    core radius for aug-charge                                                  
                                                                                                    
   Atomic configuration                                                                             
    4 entries                                                                                       
     n  l   j            E        occ.                                                              
     1  0  0.50      -273.3789   2.0000                                                             
     2  0  0.50       -13.7508   2.0000                                                             
     2  1  0.50        -5.2854   2.0000                                                             
     3  2  1.50        -5.4423   0.0000                                                             
   Description                                                                                      
     l       E           TYP  RCUT    TYP  RCUT                                                     
     0    -13.7508458     23  1.200                                                                 
     0     -8.2022199     23  1.200                                                                 
     1     -5.2854383     23  1.500                                                                 
     1     34.0145650     23  1.500                                                                 
     2     -5.4423304      7  1.500                                                                 
  local pseudopotential read in
  partial core-charges read in
  partial kinetic energy density read in
  atomic valenz-charges read in
  non local Contribution for L=           0  read in
    real space projection operators read in
  non local Contribution for L=           0  read in
    real space projection operators read in
  non local Contribution for L=           1  read in
    real space projection operators read in
  non local Contribution for L=           1  read in
    real space projection operators read in
    PAW grid and wavefunctions read in

   number of l-projection  operators is LMAX  =           4
   number of lm-projection operators is LMMAX =           8

 POTCAR:    PAW_PBE O 08Apr2002                   
   SHA256 =  818f92134a0a090dccd8ba1447fa70422a3b330e708bb4f08108d8ae51209ddf O/POTCAR              
   COPYR  = (c) Copyright 08Apr2002 Georg Kresse                                                    
   COPYR  = This file is part of the software VASP. Any use, copying, and all other rights are regul
   COPYR  = If you do not have a valid VASP license, you may not use, copy or distribute this file. 
   VRHFIN =O: s2p4                                                                                  
   LEXCH  = PE                                                                                      
   EATOM  =   432.3788 eV,   31.7789 Ry                                                             
                                                                                                    
   TITEL  = PAW_PBE O 08Apr2002                                                                     
   LULTRA =        F    use ultrasoft PP ?                                                          
   IUNSCR =        1    unscreen: 0-lin 1-nonlin 2-no                                               
   RPACOR =    1.200    partial core radius                                                         
   POMASS =   16.000; ZVAL   =    6.000    mass and valenz                                          
   RCORE  =    1.520    outmost cutoff radius                                                       
   RWIGS  =    1.550; RWIGS  =    0.820    wigner-seitz radius (au A)                               
   ENMAX  =  400.000; ENMIN  =  300.000 eV                                                          
   ICORE  =        2    local potential                                                             
   LCOR   =        T    correct aug charges                                                         
   LPAW   =        T    paw PP                                                                      
   EAUG   =  605.392                                                                                
   DEXC   =    0.000                                                                                
   RMAX   =    1.553    core radius for proj-oper                                                   
   RAUG   =    1.300    factor for augmentation sphere                                              
   RDEP   =    1.550    radius for radial grids                                                     
   RDEPT  =    1.329    core radius for aug-charge                                                  
                                                                                                    
   Atomic configuration                                                                             
    4 entries                                                                                       
     n  l   j            E        occ.                                                              
     1  0  0.50      -514.6923   2.0000                                                             
     2  0  0.50       -23.9615   2.0000                                                             
     2  1  0.50        -9.0305   4.0000                                                             
     3  2  1.50        -9.5241   0.0000                                                             
   Description                                                                                      
     l       E           TYP  RCUT    TYP  RCUT                                                     
     0    -23.9615318     23  1.200                                                                 
     0     -9.5240782     23  1.200                                                                 
     1     -9.0304911     23  1.520                                                                 
     1      8.1634956     23  1.520                                                                 
     2     -9.5240782      7  1.500                                                                 
  local pseudopotential read in
  partial core-charges read in
  partial kinetic energy density read in
  kinetic energy density of atom read in
  atomic valenz-charges read in
  non local Contribution for L=           0  read in
    real space projection operators read in
  non local Contribution for L=           0  read in
    real space projection operators read in
  non local Contribution for L=           1  read in
    real space projection operators read in
  non local Contribution for L=           1  read in
    real space projection operators read in
    PAW grid and wavefunctions read in

   number of l-projection  operators is LMAX  =           4
   number of lm-projection operators is LMMAX =           8

 POTCAR:    PAW_PBE Mg_pv 13Apr2007               
   SHA256 =  f474ac0dd33840b9ae76c01d57fea79fdf77cdfbb07d5ade72c65f83c709b62b Mg_pv/POTCAR          
   COPYR  = (c) Copyright 13Apr2007 Georg Kresse                                                    
   COPYR  = This file is part of the software VASP. Any use, copying, and all other rights are regul
   COPYR  = If you do not have a valid VASP license, you may not use, copy or distribute this file. 
   VRHFIN =Mg: p6s2                                                                                 
   LEXCH  = PE                                                                                      
   EATOM  =  1056.7344 eV,   77.6678 Ry                                                             
                                                                                                    
   TITEL  = PAW_PBE Mg_pv 13Apr2007                                                                 
   LULTRA =        F    use ultrasoft PP ?                                                          
   IUNSCR =        1    unscreen: 0-lin 1-nonlin 2-no                                               
   RPACOR =    1.500    partial core radius                                                         
   POMASS =   24.305; ZVAL   =    8.000    mass and valenz                                          
   RCORE  =    2.000    outmost cutoff radius                                                       
   RWIGS  =    2.000; RWIGS  =    1.058    wigner-seitz radius (au A)                               
   ENMAX  =  403.929; ENMIN  =  302.947 eV                                                          
   RCLOC  =    1.506    cutoff for local pot                                                        
   LCOR   =        T    correct aug charges                                                         
   LPAW   =        T    paw PP                                                                      
   EAUG   =  758.780                                                                                
   DEXC   =    0.000                                                                                
   RMAX   =    2.045    core radius for proj-oper                                                   
   RAUG   =    1.300    factor for augmentation sphere                                              
   RDEP   =    2.025    radius for radial grids                                                     
   RDEPT  =    1.557    core radius for aug-charge                                                  
                                                                                                    
   Atomic configuration                                                                             
    5 entries                                                                                       
     n  l   j            E        occ.                                                              
     1  0  0.50     -1259.6230   2.0000                                                             
     2  0  0.50       -79.8442   2.0000                                                             
     2  1  1.50       -46.6121   6.0000                                                             
     3  0  0.50        -4.7055   2.0000                                                             
     3  2  1.50        -1.3606   0.0000                                                             
   Description                                                                                      
     l       E           TYP  RCUT    TYP  RCUT                                                     
     1    -46.6121073     23  1.600                                                                 
     1      2.7211652     23  1.600                                                                 
     0     -4.7054661     23  2.000                                                                 
     0     61.2262170     23  2.000                                                                 
     2     -1.3605826     23  2.000                                                                 
  local pseudopotential read in
  partial core-charges read in
  partial kinetic energy density read in
  atomic valenz-charges read in
  non local Contribution for L=           1  read in
    real space projection operators read in
  non local Contribution for L=           1  read in
    real space projection operators read in
  non local Contribution for L=           0  read in
    real space projection operators read in
  non local Contribution for L=           0  read in
    real space projection operators read in
  non local Contribution for L=           2  read in
    real space projection operators read in
    PAW grid and wavefunctions read in

   number of l-projection  operators is LMAX  =           5
   number of lm-projection operators is LMMAX =          13

 POTCAR:    PAW_PBE O 08Apr2002                   
   SHA256 =  818f92134a0a090dccd8ba1447fa70422a3b330e708bb4f08108d8ae51209ddf O/POTCAR              
   COPYR  = (c) Copyright 08Apr2002 Georg Kresse                                                    
   COPYR  = This file is part of the software VASP. Any use, copying, and all other rights are regul
   COPYR  = If you do not have a valid VASP license, you may not use, copy or distribute this file. 
   VRHFIN =O: s2p4                                                                                  
   LEXCH  = PE                                                                                      
   EATOM  =   432.3788 eV,   31.7789 Ry                                                             
                                                                                                    
   TITEL  = PAW_PBE O 08Apr2002                                                                     
   LULTRA =        F    use ultrasoft PP ?                                                          
   IUNSCR =        1    unscreen: 0-lin 1-nonlin 2-no                                               
   RPACOR =    1.200    partial core radius                                                         
   POMASS =   16.000; ZVAL   =    6.000    mass and valenz                                          
   RCORE  =    1.520    outmost cutoff radius                                                       
   RWIGS  =    1.550; RWIGS  =    0.820    wigner-seitz radius (au A)                               
   ENMAX  =  400.000; ENMIN  =  300.000 eV                                                          
   ICORE  =        2    local potential                                                             
   LCOR   =        T    correct aug charges                                                         
   LPAW   =        T    paw PP                                                                      
   EAUG   =  605.392                                                                                
   DEXC   =    0.000                                                                                
   RMAX   =    1.553    core radius for proj-oper                                                   
   RAUG   =    1.300    factor for augmentation sphere                                              
   RDEP   =    1.550    radius for radial grids                                                     
   RDEPT  =    1.329    core radius for aug-charge                                                  
                                                                                                    
   Atomic configuration                                                                             
    4 entries                                                                                       
     n  l   j            E        occ.                                                              
     1  0  0.50      -514.6923   2.0000                                                             
     2  0  0.50       -23.9615   2.0000                                                             
     2  1  0.50        -9.0305   4.0000                                                             
     3  2  1.50        -9.5241   0.0000                                                             
   Description                                                                                      
     l       E           TYP  RCUT    TYP  RCUT                                                     
     0    -23.9615318     23  1.200                                                                 
     0     -9.5240782     23  1.200                                                                 
     1     -9.0304911     23  1.520                                                                 
     1      8.1634956     23  1.520                                                                 
     2     -9.5240782      7  1.500                                                                 
  local pseudopotential read in
  partial core-charges read in
  partial kinetic energy density read in
  kinetic energy density of atom read in
  atomic valenz-charges read in
  non local Contribution for L=           0  read in
    real space projection operators read in
  non local Contribution for L=           0  read in
    real space projection operators read in
  non local Contribution for L=           1  read in
    real space projection operators read in
  non local Contribution for L=           1  read in
    real space projection operators read in
    PAW grid and wavefunctions read in

   number of l-projection  operators is LMAX  =           4
   number of lm-projection operators is LMMAX =           8

 -----------------------------------------------------------------------------
|                                                                             |
|               ----> ADVICE to this user running VASP <----                  |
|                                                                             |
|     You have a (more or less) 'large supercell' and for larger cells it     |
|     might be more efficient to use real-space projection operators.         |
|     Therefore, try LREAL= Auto in the INCAR file.                           |
|     Mind: For very accurate calculation, you might also keep the            |
|     reciprocal projection scheme (i.e. LREAL=.FALSE.).                      |
|                                                                             |
 -----------------------------------------------------------------------------

  PAW_PBE C 08Apr2002                   :
 energy of atom  1       EATOM= -147.1560
 kinetic energy error for atom=    0.0057 (will be added to EATOM!!)
  PAW_PBE O 08Apr2002                   :
 energy of atom  2       EATOM= -432.3788
 kinetic energy error for atom=    0.0168 (will be added to EATOM!!)
  PAW_PBE Mg_pv 13Apr2007               :
 energy of atom  3       EATOM=-1056.7344
 kinetic energy error for atom=    0.0221 (will be added to EATOM!!)
  PAW_PBE O 08Apr2002                   :
 energy of atom  4       EATOM= -432.3788
 kinetic energy error for atom=    0.0168 (will be added to EATOM!!)


 POSCAR:  C  O Mg  O
  positions in direct lattice
  No initial velocities read in
 -----------------------------------------------------------------------------
|                                                                             |
|           W    W    AA    RRRRR   N    N  II  N    N   GGGG   !!!           |
|           W    W   A  A   R    R  NN   N  II  NN   N  G    G  !!!           |
|           W    W  A    A  R    R  N N  N  II  N N  N  G       !!!           |
|           W WW W  AAAAAA  RRRRR   N  N N  II  N  N N  G  GGG   !            |
|           WW  WW  A    A  R   R   N   NN  II  N   NN  G    G                |
|           W    W  A    A  R    R  N    N  II  N    N   GGGG   !!!           |
|                                                                             |
|     Specifying the vdW parameters                                           |
|     VDW_S8 = 1.201                                                          |
|     VDW_A1 = 0.401                                                          |
|     VDW_A2 = 5.029                                                          |
|     in the INCAR file will overwrite the defaults for pbe0. Please make     |
|     sure that is what you intended.                                         |
|                                                                             |
 -----------------------------------------------------------------------------

 exchange correlation table for  LEXCH =        8
   RHO(1)=    0.500       N(1)  =     2000
   RHO(2)=  100.500       N(2)  =     4000



--------------------------------------------------------------------------------------------------------


 ion  position               nearest neighbor table
   1  0.625  0.625  0.782-   3 1.18   2 1.18
   2  0.527  0.527  0.783-   1 1.18
   3  0.723  0.723  0.783-   1 1.18
   4  0.000  0.750  0.350-  36 2.14  38 2.14  39 2.14  46 2.14  55 2.14
   5  0.250  0.000  0.350-  37 2.14  38 2.14  39 2.14  47 2.14  54 2.14
   6  0.000  0.000  0.450-  38 2.14  37 2.14  36 2.14  44 2.14  53 2.14  42 2.14
   7  0.250  0.750  0.450-  39 2.14  37 2.14  36 2.14  45 2.14  52 2.14  43 2.14
   8  0.000  0.750  0.550-  42 2.14  50 2.14  59 2.14  43 2.14  36 2.15  40 2.16
   9  0.250  1.000  0.550-  42 2.14  51 2.14  43 2.14  58 2.14  37 2.15  41 2.16
  10  0.000  0.000  0.650-  42 2.13  41 2.14  48 2.14  40 2.14  57 2.14
  11  0.250  0.750  0.649-  43 2.13  40 2.13  41 2.14  49 2.14  56 2.14
  12  0.000  0.250  0.350-  44 2.14  38 2.14  46 2.14  47 2.14  63 2.14
  13  0.250  0.500  0.350-  45 2.14  39 2.14  46 2.14  47 2.14  62 2.14
  14  0.000  0.500  0.450-  46 2.14  44 2.14  45 2.14  36 2.14  61 2.14  50 2.14
  15  0.250  0.250  0.450-  47 2.14  44 2.14  45 2.14  37 2.14  60 2.14  51 2.14
  16  1.000  0.250  0.550-  42 2.14  51 2.14  67 2.14  50 2.14  44 2.15  48 2.16
  17  0.250  0.500  0.550-  51 2.14  43 2.14  66 2.14  50 2.14  45 2.15  49 2.16
  18  0.000  0.500  0.649-  50 2.13  49 2.13  48 2.14  40 2.14  65 2.14
  19  0.250  0.250  0.650-  51 2.13  48 2.14  41 2.14  49 2.14  64 2.14
  20  0.500  0.750  0.350-  52 2.14  39 2.14  54 2.14  55 2.14  62 2.14
  21  0.750  0.000  0.350-  53 2.14  38 2.14  54 2.14  55 2.14  63 2.14
  22  0.500  0.000  0.450-  54 2.14  52 2.14  53 2.14  37 2.14  60 2.14  58 2.14
  23  0.750  0.750  0.450-  55 2.14  52 2.14  53 2.14  36 2.14  61 2.14  59 2.14
  24  0.500  0.750  0.551-  59 2.13  66 2.13  58 2.14  43 2.14  52 2.15  56 2.18
  25  0.750  0.000  0.550-  42 2.14  58 2.14  59 2.14  67 2.14  53 2.15  57 2.16
  26  0.500  0.000  0.649-  58 2.13  64 2.13  41 2.14  57 2.14  56 2.14
  27  0.752  0.752  0.650-  40 2.13  57 2.13  59 2.13  65 2.15  56 2.15
  28  0.500  0.250  0.350-  60 2.14  54 2.14  47 2.14  62 2.14  63 2.14
  29  0.750  0.500  0.350-  61 2.14  55 2.14  46 2.14  62 2.14  63 2.14
  30  0.500  0.500  0.450-  62 2.14  52 2.14  60 2.14  61 2.14  45 2.14  66 2.14
  31  0.750  0.250  0.450-  63 2.14  53 2.14  60 2.14  61 2.14  44 2.14  67 2.14
  32  0.500  0.250  0.550-  51 2.14  67 2.14  66 2.14  58 2.14  60 2.15  64 2.16
  33  0.750  0.500  0.551-  59 2.13  66 2.13  50 2.14  67 2.14  61 2.15  65 2.18
  34  0.498  0.498  0.650-  49 2.13  64 2.13  66 2.13  56 2.15  65 2.15
  35  0.750  0.250  0.649-  67 2.13  57 2.13  48 2.14  64 2.14  65 2.14
  36  0.000  0.750  0.450-   4 2.14   6 2.14   7 2.14  14 2.14  23 2.14   8 2.15
  37  0.250  0.000  0.450-   5 2.14   6 2.14   7 2.14  15 2.14  22 2.14   9 2.15
  38  0.000  0.000  0.350-   6 2.14   5 2.14   4 2.14  12 2.14  21 2.14
  39  0.250  0.750  0.350-   7 2.14   5 2.14   4 2.14  13 2.14  20 2.14
  40  0.000  0.750  0.651-  27 2.13  11 2.13  10 2.14  18 2.14   8 2.16
  41  0.250  1.000  0.651-  19 2.14  10 2.14  11 2.14  26 2.14   9 2.16
  42  0.000  0.000  0.550-  10 2.13  16 2.14   9 2.14   8 2.14  25 2.14   6 2.14
  43  0.250  0.750  0.550-  11 2.13  24 2.14   9 2.14  17 2.14   8 2.14   7 2.14
  44  0.000  0.250  0.450-  12 2.14   6 2.14  14 2.14  15 2.14  31 2.14  16 2.15
  45  0.250  0.500  0.450-  13 2.14   7 2.14  14 2.14  15 2.14  30 2.14  17 2.15
  46  0.000  0.500  0.350-  14 2.14  12 2.14  13 2.14   4 2.14  29 2.14
  47  0.250  0.250  0.350-  15 2.14  12 2.14  13 2.14   5 2.14  28 2.14
  48  1.000  0.250  0.651-  19 2.14  10 2.14  35 2.14  18 2.14  16 2.16
  49  0.250  0.500  0.651-  34 2.13  18 2.13  19 2.14  11 2.14  17 2.16
  50  1.000  0.500  0.550-  18 2.13  33 2.14  16 2.14   8 2.14  17 2.14  14 2.14
  51  0.250  0.250  0.550-  19 2.13  16 2.14   9 2.14  32 2.14  17 2.14  15 2.14
  52  0.500  0.750  0.450-  20 2.14   7 2.14  22 2.14  23 2.14  30 2.14  24 2.15
  53  0.750  0.000  0.450-  21 2.14   6 2.14  22 2.14  23 2.14  31 2.14  25 2.15
  54  0.500  0.000  0.350-  22 2.14  20 2.14  21 2.14   5 2.14  28 2.14
  55  0.750  0.750  0.350-  23 2.14  20 2.14  21 2.14   4 2.14  29 2.14
  56  0.500  0.750  0.652-  26 2.14  11 2.14  34 2.15  27 2.15  24 2.18
  57  0.750  0.000  0.651-  27 2.13  35 2.13  10 2.14  26 2.14  25 2.16
  58  0.500  1.000  0.550-  26 2.13  24 2.14   9 2.14  25 2.14  32 2.14  22 2.14
  59  0.750  0.750  0.550-  27 2.13  33 2.13  24 2.13  25 2.14   8 2.14  23 2.14
  60  0.500  0.250  0.450-  28 2.14  22 2.14  15 2.14  30 2.14  31 2.14  32 2.15
  61  0.750  0.500  0.450-  29 2.14  23 2.14  14 2.14  30 2.14  31 2.14  33 2.15
  62  0.500  0.500  0.350-  30 2.14  20 2.14  28 2.14  29 2.14  13 2.14
  63  0.750  0.250  0.350-  31 2.14  21 2.14  28 2.14  29 2.14  12 2.14
  64  0.500  0.250  0.651-  34 2.13  26 2.13  19 2.14  35 2.14  32 2.16
  65  0.750  0.500  0.652-  18 2.14  35 2.14  34 2.15  27 2.15  33 2.18
  66  0.500  0.500  0.550-  34 2.13  33 2.13  24 2.13  17 2.14  32 2.14  30 2.14
  67  0.750  0.250  0.550-  35 2.13  33 2.14  16 2.14  32 2.14  25 2.14  31 2.14


IMPORTANT INFORMATION: All symmetrisations will be switched off!
NOSYMM: (Re-)initialisation of all symmetry stuff for point group C_1.


----------------------------------------------------------------------------------------

                                     Primitive cell                                     

  volume of cell :    1563.6717

  direct lattice vectors                    reciprocal lattice vectors
     8.546113626  0.000000000  0.000000000     0.117012252  0.000000000  0.000000000
     0.000000000  8.546113626  0.000000000     0.000000000  0.117012252  0.000000000
     0.000000000  0.000000000 21.409585219     0.000000000  0.000000000  0.046708051

  length of vectors
     8.546113626  8.546113626 21.409585219     0.117012252  0.117012252  0.046708051

  position of ions in fractional coordinates (direct lattice)
     0.625001202  0.625001176  0.782410767
     0.527381710  0.527381695  0.782868106
     0.722618972  0.722618947  0.782864475
     0.000000000  0.750000000  0.350310383
     0.250000000  0.000000000  0.350310383
     0.000000000  0.000000000  0.450103461
     0.250000000  0.750000000  0.450103461
     0.000126397  0.750045481  0.550364384
     0.250020198  0.999979876  0.550369020
     0.000153514  0.000153508  0.649560948
     0.249706705  0.749926150  0.649462994
     0.000000000  0.250000000  0.350310383
     0.250000000  0.500000000  0.350310383
     0.000000000  0.500000000  0.450103461
     0.250000000  0.250000000  0.450103461
     0.999979886  0.250020189  0.550369018
     0.249873462  0.499954848  0.550364380
     0.000293418  0.500074338  0.649463019
     0.249846636  0.249846645  0.649560929
     0.500000000  0.750000000  0.350310383
     0.750000000  0.000000000  0.350310383
     0.500000000  0.000000000  0.450103461
     0.750000000  0.750000000  0.450103461
     0.500197926  0.749802498  0.550584063
     0.750045473  0.000126395  0.550364389
     0.500074323  0.000293415  0.649463029
     0.751609463  0.751609452  0.649775867
     0.500000000  0.250000000  0.350310383
     0.750000000  0.500000000  0.350310383
     0.500000000  0.500000000  0.450103461
     0.750000000  0.250000000  0.450103461
     0.499954834  0.249873459  0.550364381
     0.749802489  0.500197933  0.550584061
     0.498390847  0.498390852  0.649775304
     0.749926144  0.249706712  0.649462986
     0.000000000  0.750000000  0.450103461
     0.250000000  0.000000000  0.450103461
     0.000000000  0.000000000  0.350310383
     0.250000000  0.750000000  0.350310383
     0.000492848  0.750157003  0.651068122
     0.250051487  0.999948683  0.651427282
     0.000074949  0.000074944  0.550048256
     0.250303439  0.749994628  0.550095432
     0.000000000  0.250000000  0.450103461
     0.250000000  0.500000000  0.450103461
     0.000000000  0.500000000  0.350310383
     0.250000000  0.250000000  0.350310383
     0.999948677  0.250051489  0.651427265
     0.249507344  0.499843384  0.651068059
     0.999696612  0.500005653  0.550095444
     0.249925156  0.249925155  0.550048288
     0.500000000  0.750000000  0.450103461
     0.750000000  0.000000000  0.450103461
     0.500000000  0.000000000  0.350310383
     0.750000000  0.750000000  0.350310383
     0.500218844  0.749781368  0.652186552
     0.750157005  0.000492840  0.651068120
     0.500005643  0.999696608  0.550095447
     0.749959505  0.749959506  0.550250793
     0.500000000  0.250000000  0.450103461
     0.750000000  0.500000000  0.450103461
     0.500000000  0.500000000  0.350310383
     0.750000000  0.250000000  0.350310383
     0.499843390  0.249507343  0.651068057
     0.749781364  0.500218864  0.652186559
     0.500040711  0.500040716  0.550250721
     0.749994620  0.250303442  0.550095433

  ion indices of the primitive-cell ions
   primitive index   ion index
                 1           1
                 2           2
                 3           3
                 4           4
                 5           5
                 6           6
                 7           7
                 8           8
                 9           9
                10          10
                11          11
                12          12
                13          13
                14          14
                15          15
                16          16
                17          17
                18          18
                19          19
                20          20
                21          21
                22          22
                23          23
                24          24
                25          25
                26          26
                27          27
                28          28
                29          29
                30          30
                31          31
                32          32
                33          33
                34          34
                35          35
                36          36
                37          37
                38          38
                39          39
                40          40
                41          41
                42          42
                43          43
                44          44
                45          45
                46          46
                47          47
                48          48
                49          49
                50          50
                51          51
                52          52
                53          53
                54          54
                55          55
                56          56
                57          57
                58          58
                59          59
                60          60
                61          61
                62          62
                63          63
                64          64
                65          65
                66          66
                67          67

----------------------------------------------------------------------------------------



 KPOINTS: pymatgen v2020.8.13 with grid density = 

Automatic generation of k-mesh.
 Grid dimensions read from file:
 generate k-points for:    2    2    1

 Generating k-lattice:

  Cartesian coordinates                     Fractional coordinates (reciprocal lattice)
     0.058506126  0.000000000  0.000000000     0.500000000  0.000000000  0.000000000
     0.000000000  0.058506126  0.000000000     0.000000000  0.500000000  0.000000000
     0.000000000  0.000000000  0.046708051     0.000000000  0.000000000  1.000000000

  Length of vectors
     0.058506126  0.058506126  0.046708051

  Shift w.r.t. Gamma in fractional coordinates (k-lattice)
     0.000000000  0.000000000  0.000000000

 
 Subroutine IBZKPT returns following result:
 ===========================================
 
 Found      4 irreducible k-points:
 
 Following reciprocal coordinates:
            Coordinates               Weight
  0.000000  0.000000  0.000000      1.000000
  0.500000  0.000000  0.000000      1.000000
  0.000000  0.500000  0.000000      1.000000
  0.500000  0.500000  0.000000      1.000000
 
 Following cartesian coordinates:
            Coordinates               Weight
  0.000000  0.000000  0.000000      1.000000
  0.058506  0.000000  0.000000      1.000000
  0.000000  0.058506  0.000000      1.000000
  0.058506  0.058506  0.000000      1.000000
 
 
 Subroutine IBZKPT_HF returns following result:
 ==============================================
 
 Found      4 k-points in 1st BZ
 the following      4 k-points will be used (e.g. in the exchange kernel)
 Following reciprocal coordinates:   # in IRBZ
  0.000000  0.000000  0.000000    0.25000000   1 t-inv F
  0.500000  0.000000  0.000000    0.25000000   2 t-inv F
  0.000000  0.500000  0.000000    0.25000000   3 t-inv F
  0.500000  0.500000  0.000000    0.25000000   4 t-inv F


--------------------------------------------------------------------------------------------------------




 Dimension of arrays:
   k-points           NKPTS =      4   k-points in BZ     NKDIM =      4   number of bands    NBANDS=    384
   number of dos      NEDOS =    301   number of ions     NIONS =     67
   non local maximal  LDIM  =      5   non local SUM 2l+1 LMDIM =     13
   total plane-waves  NPLWV = 882000
   max r-space proj   IRMAX =      1   max aug-charges    IRDMAX=  11315
   dimension x,y,z NGX =    70 NGY =   70 NGZ =  180
   dimension x,y,z NGXF=   140 NGYF=  140 NGZF=  360
   support grid    NGXF=   140 NGYF=  140 NGZF=  360
   ions per type =               1   2  32  32
   NGX,Y,Z   is equivalent  to a cutoff of  13.62, 13.62, 13.98 a.u.
   NGXF,Y,Z  is equivalent  to a cutoff of  27.23, 27.23, 27.95 a.u.

 SYSTEM =  MgO-rocksalt                            
 POSCAR =   C  O Mg  O                             

--------------------------------------------------------------------------------------------------------


  energy-cutoff  :      600.00
  volume of cell :     1563.67
      direct lattice vectors                 reciprocal lattice vectors
     8.546113626  0.000000000  0.000000000     0.117012252  0.000000000  0.000000000
     0.000000000  8.546113626  0.000000000     0.000000000  0.117012252  0.000000000
     0.000000000  0.000000000 21.409585219     0.000000000  0.000000000  0.046708051

  length of vectors
     8.546113626  8.546113626 21.409585219     0.117012252  0.117012252  0.046708051



 k-points in units of 2pi/SCALE and weight: pymatgen v2020.8.13 with grid density = 
   0.00000000  0.00000000  0.00000000       0.250
   0.05850613  0.00000000  0.00000000       0.250
   0.00000000  0.05850613  0.00000000       0.250
   0.05850613  0.05850613  0.00000000       0.250

 k-points in reciprocal lattice and weights: pymatgen v2020.8.13 with grid density = 
   0.00000000  0.00000000  0.00000000       0.250
   0.50000000  0.00000000  0.00000000       0.250
   0.00000000  0.50000000  0.00000000       0.250
   0.50000000  0.50000000  0.00000000       0.250

 position of ions in fractional coordinates (direct lattice) 
   0.62500120  0.62500118  0.78241077
   0.52738171  0.52738169  0.78286811
   0.72261897  0.72261895  0.78286448
   0.00000000  0.75000000  0.35031038
   0.25000000  0.00000000  0.35031038
   0.00000000  0.00000000  0.45010346
   0.25000000  0.75000000  0.45010346
   0.00012640  0.75004548  0.55036438
   0.25002020  0.99997988  0.55036902
   0.00015351  0.00015351  0.64956095
   0.24970671  0.74992615  0.64946299
   0.00000000  0.25000000  0.35031038
   0.25000000  0.50000000  0.35031038
   0.00000000  0.50000000  0.45010346
   0.25000000  0.25000000  0.45010346
   0.99997989  0.25002019  0.55036902
   0.24987346  0.49995485  0.55036438
   0.00029342  0.50007434  0.64946302
   0.24984664  0.24984665  0.64956093
   0.50000000  0.75000000  0.35031038
   0.75000000  0.00000000  0.35031038
   0.50000000  0.00000000  0.45010346
   0.75000000  0.75000000  0.45010346
   0.50019793  0.74980250  0.55058406
   0.75004547  0.00012639  0.55036439
   0.50007432  0.00029342  0.64946303
   0.75160946  0.75160945  0.64977587
   0.50000000  0.25000000  0.35031038
   0.75000000  0.50000000  0.35031038
   0.50000000  0.50000000  0.45010346
   0.75000000  0.25000000  0.45010346
   0.49995483  0.24987346  0.55036438
   0.74980249  0.50019793  0.55058406
   0.49839085  0.49839085  0.64977530
   0.74992614  0.24970671  0.64946299
   0.00000000  0.75000000  0.45010346
   0.25000000  0.00000000  0.45010346
   0.00000000  0.00000000  0.35031038
   0.25000000  0.75000000  0.35031038
   0.00049285  0.75015700  0.65106812
   0.25005149  0.99994868  0.65142728
   0.00007495  0.00007494  0.55004826
   0.25030344  0.74999463  0.55009543
   0.00000000  0.25000000  0.45010346
   0.25000000  0.50000000  0.45010346
   0.00000000  0.50000000  0.35031038
   0.25000000  0.25000000  0.35031038
   0.99994868  0.25005149  0.65142727
   0.24950734  0.49984338  0.65106806
   0.99969661  0.50000565  0.55009544
   0.24992516  0.24992515  0.55004829
   0.50000000  0.75000000  0.45010346
   0.75000000  0.00000000  0.45010346
   0.50000000  0.00000000  0.35031038
   0.75000000  0.75000000  0.35031038
   0.50021884  0.74978137  0.65218655
   0.75015701  0.00049284  0.65106812
   0.50000564  0.99969661  0.55009545
   0.74995951  0.74995951  0.55025079
   0.50000000  0.25000000  0.45010346
   0.75000000  0.50000000  0.45010346
   0.50000000  0.50000000  0.35031038
   0.75000000  0.25000000  0.35031038
   0.49984339  0.24950734  0.65106806
   0.74978136  0.50021886  0.65218656
   0.50004071  0.50004072  0.55025072
   0.74999462  0.25030344  0.55009543

 position of ions in cartesian coordinates  (Angst):
   5.34133129  5.34133107 16.75108999
   4.50706402  4.50706389 16.76088143
   6.17558384  6.17558363 16.76080370
   0.00000000  6.40958522  7.50000000
   2.13652841  0.00000000  7.50000000
   0.00000000  0.00000000  9.63652841
   2.13652841  6.40958522  9.63652841
   0.00108021  6.40997390 11.78307319
   2.13670102  8.54594164 11.78317243
   0.00131194  0.00131190 13.90683046
   2.13402188  6.40895409 13.90473331
   0.00000000  2.13652841  7.50000000
   2.13652841  4.27305681  7.50000000
   0.00000000  4.27305681  9.63652841
   2.13652841  2.13652841  9.63652841
   8.54594173  2.13670094 11.78317240
   2.13544700  4.27267093 11.78307309
   0.00250758  4.27369211 13.90473386
   2.13521774  2.13521782 13.90683007
   4.27305681  6.40958522  7.50000000
   6.40958522  0.00000000  7.50000000
   4.27305681  0.00000000  9.63652841
   6.40958522  6.40958522  9.63652841
   4.27474831  6.40789734 11.78777643
   6.40997383  0.00108019 11.78307329
   4.27369199  0.00250756 13.90473407
   6.42333987  6.42333978 13.91143179
   4.27305681  2.13652841  7.50000000
   6.40958522  4.27305681  7.50000000
   4.27305681  4.27305681  9.63652841
   6.40958522  2.13652841  9.63652841
   4.27267082  2.13544697 11.78307311
   6.40789727  4.27474837 11.78777638
   4.25930481  4.25930485 13.91141975
   6.40895403  2.13402194 13.90473314
   0.00000000  6.40958522  9.63652841
   2.13652841  0.00000000  9.63652841
   0.00000000  0.00000000  7.50000000
   2.13652841  6.40958522  7.50000000
   0.00421193  6.41092699 13.93909844
   2.13696842  8.54567506 13.94678790
   0.00064053  0.00064048 11.77630502
   2.13912163  6.40953931 11.77731503
   0.00000000  2.13652841  9.63652841
   2.13652841  4.27305681  9.63652841
   0.00000000  4.27305681  7.50000000
   2.13652841  2.13652841  7.50000000
   8.54567501  2.13696844 13.94678755
   2.13231811  4.27171836 13.93909709
   8.54352083  4.27310512 11.77731528
   2.13588878  2.13588877 11.77630571
   4.27305681  6.40958522  9.63652841
   6.40958522  0.00000000  9.63652841
   4.27305681  0.00000000  7.50000000
   6.40958522  6.40958522  7.50000000
   4.27492708  6.40771676 13.96304356
   6.41092700  0.00421186 13.93909839
   4.27310504  8.54352080 11.77731535
   6.40923915  6.40923915 11.78064125
   4.27305681  2.13652841  9.63652841
   6.40958522  4.27305681  9.63652841
   4.27305681  4.27305681  7.50000000
   6.40958522  2.13652841  7.50000000
   4.27171840  2.13231810 13.93909704
   6.40771673  4.27492725 13.96304372
   4.27340473  4.27340478 11.78063970
   6.40953924  2.13912166 11.77731505



--------------------------------------------------------------------------------------------------------

--------------------------------------- Iteration      FINAL  ---------------------------------------


--------------------OUTCAR has been truncated-------------------------


--------------------OUTCAR has been truncated-------------------------


--------------------OUTCAR has been truncated-------------------------


--------------------OUTCAR has been truncated-------------------------


--------------------OUTCAR has been truncated-------------------------


--------------------OUTCAR has been truncated-------------------------


--------------------OUTCAR has been truncated-------------------------


--------------------OUTCAR has been truncated-------------------------


--------------------OUTCAR has been truncated-------------------------


--------------------OUTCAR has been truncated-------------------------



 VOLUME and BASIS-vectors are now :
 -----------------------------------------------------------------------------
  energy-cutoff  :      600.00
  volume of cell :     1563.67
      direct lattice vectors                 reciprocal lattice vectors
     8.546113626  0.000000000  0.000000000     0.117012252  0.000000000  0.000000000
     0.000000000  8.546113626  0.000000000     0.000000000  0.117012252  0.000000000
     0.000000000  0.000000000 21.409585219     0.000000000  0.000000000  0.046708051

  length of vectors
     8.546113626  8.546113626 21.409585219     0.117012252  0.117012252  0.046708051


 FORCES acting on ions:
    Electron-Ion                     Ewald-Force                    Non-Local-Force
 -----------------------------------------------------------------------------------------------
   0.527E-02 0.530E-02 -.963E+03   -.668E-02 -.671E-02 0.963E+03   0.791E-04 0.790E-04 0.127E+00
   0.188E+03 0.188E+03 -.145E+04   -.233E+03 -.233E+03 0.145E+04   0.398E+02 0.398E+02 -.115E+01
   -.188E+03 -.188E+03 -.145E+04   0.233E+03 0.233E+03 0.145E+04   -.398E+02 -.398E+02 -.114E+01
   -.184E+00 -.164E+00 0.203E+04   0.184E+00 0.164E+00 -.202E+04   0.281E-03 0.291E-03 -.670E+01
   0.163E+00 -.163E+00 0.203E+04   -.163E+00 0.163E+00 -.202E+04   -.395E-03 0.394E-03 -.671E+01
   -.770E+00 -.770E+00 0.716E+03   0.786E+00 0.786E+00 -.717E+03   -.104E-01 -.104E-01 0.403E+00
   0.717E+00 -.795E+00 0.717E+03   -.674E+00 0.808E+00 -.718E+03   -.264E-01 -.856E-02 0.426E+00
   -.546E+01 -.327E+01 -.583E+03   0.546E+01 0.328E+01 0.583E+03   0.427E-02 -.841E-02 -.390E+00
   0.316E+01 -.316E+01 -.593E+03   -.317E+01 0.317E+01 0.593E+03   0.100E-01 -.997E-02 -.239E+00
   -.168E+02 -.168E+02 -.191E+04   0.169E+02 0.169E+02 0.191E+04   -.138E-01 -.138E-01 0.595E+01
   0.218E+02 -.181E+02 -.189E+04   -.221E+02 0.181E+02 0.189E+04   0.203E+00 -.999E-02 0.593E+01
   -.163E+00 0.163E+00 0.203E+04   0.163E+00 -.163E+00 -.202E+04   0.392E-03 -.395E-03 -.671E+01
   0.184E+00 0.164E+00 0.203E+04   -.184E+00 -.164E+00 -.202E+04   -.282E-03 -.290E-03 -.670E+01
   -.718E+00 0.795E+00 0.717E+03   0.674E+00 -.808E+00 -.718E+03   0.264E-01 0.855E-02 0.426E+00
   0.770E+00 0.770E+00 0.716E+03   -.786E+00 -.786E+00 -.717E+03   0.104E-01 0.104E-01 0.403E+00
   -.316E+01 0.316E+01 -.593E+03   0.317E+01 -.317E+01 0.593E+03   -.997E-02 0.100E-01 -.239E+00
   0.546E+01 0.327E+01 -.583E+03   -.546E+01 -.328E+01 0.583E+03   -.422E-02 0.839E-02 -.390E+00
   -.218E+02 0.181E+02 -.189E+04   0.221E+02 -.181E+02 0.189E+04   -.203E+00 0.997E-02 0.593E+01
   0.168E+02 0.168E+02 -.191E+04   -.169E+02 -.169E+02 0.191E+04   0.139E-01 0.139E-01 0.595E+01
   0.188E+00 -.188E+00 0.203E+04   -.186E+00 0.186E+00 -.202E+04   -.860E-03 0.861E-03 -.671E+01
   -.164E+00 -.184E+00 0.203E+04   0.164E+00 0.184E+00 -.202E+04   0.289E-03 0.283E-03 -.670E+01
   0.795E+00 -.718E+00 0.717E+03   -.808E+00 0.674E+00 -.718E+03   0.855E-02 0.264E-01 0.426E+00
   -.738E+00 -.738E+00 0.719E+03   0.712E+00 0.712E+00 -.719E+03   0.170E-01 0.170E-01 0.475E+00
   0.562E+01 -.562E+01 -.578E+03   -.561E+01 0.561E+01 0.578E+03   -.132E-01 0.131E-01 -.570E-01
   -.327E+01 -.546E+01 -.583E+03   0.328E+01 0.546E+01 0.583E+03   -.841E-02 0.427E-02 -.390E+00
   0.181E+02 -.218E+02 -.189E+04   -.181E+02 0.221E+02 0.189E+04   0.997E-02 -.203E+00 0.593E+01
   -.288E+02 -.288E+02 -.181E+04   0.292E+02 0.292E+02 0.181E+04   -.323E+00 -.323E+00 0.574E+01
   0.164E+00 0.184E+00 0.203E+04   -.164E+00 -.184E+00 -.202E+04   -.287E-03 -.283E-03 -.670E+01
   -.188E+00 0.188E+00 0.203E+04   0.186E+00 -.186E+00 -.202E+04   0.861E-03 -.862E-03 -.671E+01
   0.738E+00 0.738E+00 0.719E+03   -.712E+00 -.712E+00 -.719E+03   -.170E-01 -.170E-01 0.475E+00
   -.795E+00 0.717E+00 0.717E+03   0.808E+00 -.674E+00 -.718E+03   -.856E-02 -.264E-01 0.426E+00
   0.327E+01 0.546E+01 -.583E+03   -.328E+01 -.546E+01 0.583E+03   0.839E-02 -.422E-02 -.390E+00
   -.562E+01 0.562E+01 -.578E+03   0.561E+01 -.561E+01 0.578E+03   0.131E-01 -.132E-01 -.570E-01
   0.288E+02 0.288E+02 -.181E+04   -.292E+02 -.292E+02 0.181E+04   0.323E+00 0.323E+00 0.574E+01
   -.181E+02 0.218E+02 -.189E+04   0.181E+02 -.221E+02 0.189E+04   -.999E-02 0.203E+00 0.593E+01
   -.609E+00 -.487E+00 0.538E+03   0.604E+00 0.487E+00 -.538E+03   0.496E-02 0.559E-03 -.805E-01
   0.480E+00 -.481E+00 0.537E+03   -.483E+00 0.483E+00 -.536E+03   0.351E-02 -.350E-02 -.108E+00
   -.135E+00 -.135E+00 0.152E+04   0.136E+00 0.136E+00 -.153E+04   -.187E-02 -.187E-02 0.305E+01
   0.126E+00 -.135E+00 0.152E+04   -.123E+00 0.137E+00 -.153E+04   -.376E-02 -.195E-02 0.305E+01
   -.245E+02 -.965E+01 -.143E+04   0.245E+02 0.962E+01 0.144E+04   -.274E-01 0.270E-01 -.438E+01
   0.872E+01 -.872E+01 -.146E+04   -.869E+01 0.869E+01 0.146E+04   -.194E-01 0.194E-01 -.430E+01
   -.313E+01 -.313E+01 -.438E+03   0.312E+01 0.312E+01 0.438E+03   0.908E-02 0.908E-02 0.241E+00
   0.301E+01 -.324E+01 -.434E+03   -.302E+01 0.324E+01 0.434E+03   0.121E-01 0.249E-02 0.312E+00
   -.481E+00 0.480E+00 0.537E+03   0.483E+00 -.483E+00 -.536E+03   -.350E-02 0.351E-02 -.108E+00
   0.609E+00 0.488E+00 0.538E+03   -.604E+00 -.487E+00 -.538E+03   -.497E-02 -.547E-03 -.805E-01
   -.127E+00 0.135E+00 0.152E+04   0.123E+00 -.137E+00 -.153E+04   0.376E-02 0.195E-02 0.305E+01
   0.134E+00 0.134E+00 0.152E+04   -.136E+00 -.136E+00 -.153E+04   0.187E-02 0.187E-02 0.305E+01
   -.872E+01 0.872E+01 -.146E+04   0.869E+01 -.869E+01 0.146E+04   0.194E-01 -.194E-01 -.430E+01
   0.245E+02 0.966E+01 -.143E+04   -.245E+02 -.963E+01 0.144E+04   0.274E-01 -.270E-01 -.438E+01
   -.301E+01 0.324E+01 -.434E+03   0.302E+01 -.324E+01 0.434E+03   -.121E-01 -.248E-02 0.312E+00
   0.313E+01 0.313E+01 -.438E+03   -.312E+01 -.312E+01 0.438E+03   -.911E-02 -.911E-02 0.241E+00
   0.658E+00 -.658E+00 0.539E+03   -.675E+00 0.675E+00 -.538E+03   0.194E-01 -.193E-01 -.143E+00
   -.487E+00 -.609E+00 0.538E+03   0.487E+00 0.604E+00 -.538E+03   0.558E-03 0.496E-02 -.805E-01
   0.135E+00 -.127E+00 0.152E+04   -.137E+00 0.123E+00 -.153E+04   0.195E-02 0.376E-02 0.305E+01
   -.129E+00 -.129E+00 0.152E+04   0.125E+00 0.125E+00 -.153E+04   0.467E-02 0.467E-02 0.305E+01
   0.297E+02 -.297E+02 -.139E+04   -.296E+02 0.296E+02 0.140E+04   -.634E-01 0.634E-01 -.401E+01
   -.965E+01 -.245E+02 -.143E+04   0.962E+01 0.245E+02 0.144E+04   0.270E-01 -.274E-01 -.438E+01
   0.324E+01 -.301E+01 -.434E+03   -.324E+01 0.302E+01 0.434E+03   -.248E-02 -.121E-01 0.312E+00
   -.319E+01 -.319E+01 -.426E+03   0.321E+01 0.321E+01 0.426E+03   -.242E-01 -.242E-01 0.282E+00
   0.488E+00 0.609E+00 0.538E+03   -.487E+00 -.604E+00 -.538E+03   -.546E-03 -.497E-02 -.805E-01
   -.658E+00 0.658E+00 0.539E+03   0.675E+00 -.675E+00 -.538E+03   -.193E-01 0.194E-01 -.143E+00
   0.129E+00 0.129E+00 0.152E+04   -.125E+00 -.125E+00 -.153E+04   -.467E-02 -.467E-02 0.305E+01
   -.135E+00 0.126E+00 0.152E+04   0.137E+00 -.123E+00 -.153E+04   -.195E-02 -.376E-02 0.305E+01
   0.966E+01 0.245E+02 -.143E+04   -.963E+01 -.245E+02 0.144E+04   -.270E-01 0.274E-01 -.438E+01
   -.297E+02 0.297E+02 -.139E+04   0.296E+02 -.296E+02 0.140E+04   0.634E-01 -.634E-01 -.401E+01
   0.319E+01 0.319E+01 -.426E+03   -.322E+01 -.322E+01 0.426E+03   0.242E-01 0.242E-01 0.283E+00
   -.324E+01 0.301E+01 -.434E+03   0.324E+01 -.302E+01 0.434E+03   0.249E-02 0.121E-01 0.312E+00
 -----------------------------------------------------------------------------------------------
   0.903E-03 0.912E-03 0.184E+02   0.146E-12 0.000E+00 -.642E-11   -.788E-03 -.790E-03 -.156E+02


 POSITION                                       TOTAL-FORCE (eV/Angst)
 -----------------------------------------------------------------------------------
      5.34133      5.34133     16.75109        -0.001326     -0.001324     -0.084158
      4.50706      4.50706     16.76088         1.230272      1.230273     -0.057277
      6.17558      6.17558     16.76080        -1.228980     -1.228981     -0.057051
      0.00000      6.40959      7.50000        -0.000088     -0.000137      0.747975
      2.13653      0.00000      7.50000         0.000151     -0.000152      0.750749
      0.00000      0.00000      9.63653         0.004161      0.004162      0.034052
      2.13653      6.40959      9.63653         0.012498      0.003369      0.035462
      0.00108      6.40997     11.78307        -0.002647      0.002476     -0.017650
      2.13670      8.54594     11.78317        -0.000964      0.000961     -0.023505
      0.00131      0.00131     13.90683        -0.000282     -0.000281     -0.388353
      2.13402      6.40895     13.90473        -0.002716     -0.003066     -0.380071
      0.00000      2.13653      7.50000        -0.000154      0.000150      0.750746
      2.13653      4.27306      7.50000         0.000085      0.000136      0.747988
      0.00000      4.27306      9.63653        -0.012498     -0.003367      0.035453
      2.13653      2.13653      9.63653        -0.004161     -0.004158      0.034066
      8.54594      2.13670     11.78317         0.000961     -0.000963     -0.023505
      2.13545      4.27267     11.78307         0.002666     -0.002488     -0.017656
      0.00251      4.27369     13.90473         0.002738      0.003053     -0.380129
      2.13522      2.13522     13.90683         0.000290      0.000289     -0.388275
      4.27306      6.40959      7.50000         0.000307     -0.000308      0.752396
      6.40959      0.00000      7.50000        -0.000139     -0.000087      0.747988
      4.27306      0.00000      9.63653        -0.003367     -0.012498      0.035450
      6.40959      6.40959      9.63653        -0.006001     -0.006001      0.037616
      4.27475      6.40790     11.78778         0.001482     -0.001475     -0.032558
      6.40997      0.00108     11.78307         0.002480     -0.002647     -0.017648
      4.27369      0.00251     13.90473         0.003055      0.002736     -0.380122
      6.42334      6.42334     13.91143        -0.000396     -0.000396     -0.334837
      4.27306      2.13653      7.50000         0.000139      0.000085      0.747976
      6.40959      4.27306      7.50000        -0.000308      0.000305      0.752398
      4.27306      4.27306      9.63653         0.006000      0.006001      0.037616
      6.40959      2.13653      9.63653         0.003368      0.012498      0.035461
      4.27267      2.13545     11.78307        -0.002489      0.002668     -0.017655
      6.40790      4.27475     11.78778        -0.001476      0.001479     -0.032557
      4.25930      4.25930     13.91142         0.000409      0.000409     -0.334769
      6.40895      2.13402     13.90473        -0.003065     -0.002715     -0.380064
      0.00000      6.40959      9.63653         0.001006     -0.000077      0.045168
      2.13653      0.00000      9.63653         0.001342     -0.001340      0.035276
      0.00000      0.00000      7.50000        -0.000638     -0.000638     -0.257451
      2.13653      6.40959      7.50000        -0.001292     -0.000655     -0.257804
      0.00421      6.41093     13.93910         0.002250     -0.000279     -0.175592
      2.13697      8.54568     13.94679         0.001926     -0.001923     -0.169671
      0.00064      0.00064     11.77631         0.000264      0.000259      0.008936
      2.13912      6.40954     11.77732         0.002190     -0.000312      0.015742
      0.00000      2.13653      9.63653        -0.001342      0.001343      0.035276
      2.13653      4.27306      9.63653        -0.001009      0.000078      0.045169
      0.00000      4.27306      7.50000         0.001291      0.000652     -0.257800
      2.13653      2.13653      7.50000         0.000635      0.000637     -0.257454
      8.54568      2.13697     13.94679        -0.001923      0.001925     -0.169669
      2.13232      4.27172     13.93910        -0.002257      0.000288     -0.175607
      8.54352      4.27311     11.77732        -0.002155      0.000307      0.015743
      2.13589      2.13589     11.77631        -0.000297     -0.000292      0.008932
      4.27306      6.40959      9.63653         0.006186     -0.006181      0.042821
      6.40959      0.00000      9.63653        -0.000080      0.001011      0.045169
      4.27306      0.00000      7.50000         0.000653      0.001291     -0.257802
      6.40959      6.40959      7.50000         0.001632      0.001632     -0.258211
      4.27493      6.40772     13.96304         0.001203     -0.001175     -0.137802
      6.41093      0.00421     13.93910        -0.000280      0.002250     -0.175588
      4.27311      8.54352     11.77732         0.000309     -0.002154      0.015741
      6.40924      6.40924     11.78064        -0.002588     -0.002592      0.013302
      4.27306      2.13653      9.63653         0.000081     -0.001013      0.045170
      6.40959      4.27306      9.63653        -0.006181      0.006184      0.042822
      4.27306      4.27306      7.50000        -0.001634     -0.001635     -0.258210
      6.40959      2.13653      7.50000        -0.000656     -0.001292     -0.257807
      4.27172      2.13232     13.93910         0.000289     -0.002257     -0.175604
      6.40772      4.27493     13.96304        -0.001175      0.001201     -0.137802
      4.27340      4.27340     11.78064         0.002561      0.002562      0.013314
      6.40954      2.13912     11.77732        -0.000314      0.002191      0.015742
 -----------------------------------------------------------------------------------
    total drift:                                0.000060      0.000066      0.001775


--------------------------------------------------------------------------------------------------------



  FREE ENERGIE OF THE ION-ELECTRON SYSTEM (eV)
  ---------------------------------------------------
  free  energy   TOTEN  =      -500.10054454 eV

  energy  without entropy=     -500.10054454  energy(sigma->0) =     -500.10054454



--------------------------------------------------------------------------------------------------------


    POTLOK:  cpu time      1.7745: real time      1.7746


--------------------------------------------------------------------------------------------------------


     LOOP+:  cpu time   2852.4024: real time   2853.3951
    4ORBIT:  cpu time      0.0000: real time      0.0000

 total amount of memory used by VASP MPI-rank0   198171. kBytes
=======================================================================

   base      :      30000. kBytes
   nonl-proj :      18210. kBytes
   fftplans  :       8082. kBytes
   grid      :       8190. kBytes
   one-center:         73. kBytes
   HF        :        101. kBytes
   nonlr-proj:       7336. kBytes
   wavefun   :       3906. kBytes
   fock_wrk  :     122273. kBytes

  
  
 General timing and accounting informations for this job:
 ========================================================
  
                  Total CPU time used (sec):     2915.834
                            User time (sec):     2909.784
                          System time (sec):        6.051
                         Elapsed time (sec):     2942.192
  
                   Maximum memory used (kb):      464068.
                   Average memory used (kb):          N/A
  
                          Minor page faults:       255752
                          Major page faults:            0
                 Voluntary context switches:        25489
