 **********************************************************************
                          MRCC program system
 **********************************************************************
 
                              Written by
     Mihaly Kallay, Peter R. Nagy, David Mester, Laszlo Gyevi-Nagy,
        Jozsef Csoka, P. Bernat Szabo, Zoltan Rolik, Gyula Samu,
     Jozsef Csontos, Bence Hegely, Adam Ganyecz, Istvan Ladjanszki,
       Lorant Szegedy, Bence Ladoczki, Klara Petrov, Mate Farkas,
                    Pal D. Mezei, and Reka A. Horvath
 
        Department of Physical Chemistry and Materials Science
            Budapest University of Technology and Economics
                  Budapest P.O.Box 91, H-1521 Hungary
 
                              www.mrcc.hu
 
                      Release date: March 18, 2022

 ************************ 2023-02-04 11:39:57 *************************
 Executing minp...

 Reading input from MINP...
 
 Input file:
 
calc=FNO-CCSD(T)
verbosity=3
mem=220GB
unit=angs
scfiguess=small
scfalg=locfit1
ccmaxit=400
ccsdalg=dfdirect
ccsdthreads=4
ccsdmkl=thr
ptthreads=4
lnoepsv=1e-5
naf_cor=1e-2
basis=aug-cc-pVTZ
basis_sm=def2-SVP
dfbasis_scf=def2-QZVPP-RI-JK
dfbasis_cor=aug-cc-pVTZ-RI
unit=angs
geom=xyz
10

C    29.54344629    29.54344629    16.97505516
H    29.54344670    30.44187631    17.60392580
H    29.54344662    28.64496649    17.60393442
H    30.44658454    29.54342777    16.34911135
H    28.64030918    29.54342779    16.34911130
C    25.32292329    46.42538405    16.97521401
H    26.22139350    46.42538423    17.60423123
H    24.42450361    46.42538426    17.60422237
H    25.32294208    47.32817192    16.34882774
H    25.32294206    45.52259727    16.34882693

--------------------Output has been truncated-------------------------


--------------------Output has been truncated-------------------------


--------------------Output has been truncated-------------------------


--------------------Output has been truncated-------------------------


--------------------Output has been truncated-------------------------


--------------------Output has been truncated-------------------------


--------------------Output has been truncated-------------------------


--------------------Output has been truncated-------------------------


--------------------Output has been truncated-------------------------


--------------------Output has been truncated-------------------------


 
 Reference energy [au]:                       -40.213017195197
 DF-MP2 singlet pair energy [au]:              -0.164419028375
 DF-MP2 triplet pair energy [au]:              -0.036594297791
 DF-SCS-MP2 correlation energy [au]:           -0.209500933314
 DF-SCS-MP2 energy [au]:                      -40.422518128511
 DF-SOS-MP2 correlation energy [au]:           -0.213744736888
 DF-SOS-MP2 energy [au]:                      -40.426761932085
 DF-MP2 correlation energy [au]:               -0.201013326167
 DF-MP2 energy [au]:                          -40.414030521364

 Results in FNO basis:
 
 
 Reference energy [au]:                       -40.213017195197
 DF-MP2 singlet pair energy [au]:              -0.163768768440
 DF-MP2 triplet pair energy [au]:              -0.036550540975
 DF-SCS-MP2 correlation energy [au]:           -0.208706035786
 DF-SCS-MP2 energy [au]:                      -40.421723230983
 DF-SOS-MP2 correlation energy [au]:           -0.212899398972
 DF-SOS-MP2 energy [au]:                      -40.425916594169
 DF-MP2 correlation energy [au]:               -0.200319309415
 DF-MP2 energy [au]:                          -40.413336504612

 Results in NAF basis:
 
 
 Reference energy [au]:                       -40.213017195197
 DF-MP2 singlet pair energy [au]:              -0.163734491335
 DF-MP2 triplet pair energy [au]:              -0.036569820025
 DF-SCS-MP2 correlation energy [au]:           -0.208671329610
 DF-SCS-MP2 energy [au]:                      -40.421688524807
 DF-SOS-MP2 correlation energy [au]:           -0.212854838735
 DF-SOS-MP2 energy [au]:                      -40.425872033932
 DF-MP2 correlation energy [au]:               -0.200304311360
 DF-MP2 energy [au]:                          -40.413321506557

 ************************ 2023-02-04 11:40:15 *************************
 Executing ccsd...

 Allocation of 220.0 Gbytes of memory...

 Direct DF-CCSD(T) calculation
 
 Convergence criterion:  1.0E-06
 
 Number of occupied/virtual/auxiliary orbitals:     4    83   221
     89.04 MB is the minimal memory requirement for (T)
     22.38 MB is the minimal memory requirement for CCSD
 
 Reference energy [au]:             -40.213017195197
 T1 contribution [au]:                0.000000000000
 Same spin MP2 energy [au]:          -0.036560153119
 Opposite spin MP2 energy [au]:      -0.163751548348
 MP2 correlation energy [au]:        -0.200311701466
 Total MP2 energy [au]:             -40.413328896663
 MP2 correction [au]:                -0.000701624700
 
 
 CPU time [min]:     0.061                   Wall time [min]:     0.004
 
 Starting CCSD iterations...
 
                     Residual norm          Energy
 Iteration  1        0.131887850571      -40.427796732726
 Iteration  2        0.033755013852      -40.433319856934
 Iteration  3        0.008181650728      -40.433786012269
 Iteration  4        0.001913906219      -40.433788614404
 Iteration  5        0.000362952055      -40.433795665287
 Iteration  6        0.000073619823      -40.433795798221
 Iteration  7        0.000017729545      -40.433796403558
 Iteration  8        0.000003100180      -40.433796421267
 
 CCSD iteration has converged in  8 steps.
      207.43 MB memory was utilized by CCSD
 
 T1 diagnostic:      7.475E-03            D1 diagnostic:      1.210E-02
 
 T1 contribution [au]:                                  0.000000000000
 PPL energy contribution [au]:                          0.057487574988
 Scaled PPL energy contribution [au]:                   0.057690613158

 OS-PPL energy contribution [au]:                       0.050872619033
 Scaled OS-PPL energy contribution [au]:                0.051084764295
 SS-PPL energy contribution [au]:                       0.006614955955
 Scaled SS-PPL energy contribution [au]:                0.006619519569

 Opposite spin CCSD energy [au]:                       -0.185468636791
 Same spin CCSD energy [au]:                           -0.035322026534
 CCSD correlation energy [au]:                         -0.220790663324
 CCSD correlation energy + MP2 correction [au]:        -0.221492288025
 CCSD correlation energy + MP2 + PPL corr. [au]:       -0.221289249855
 Total CCSD energy [au]:                              -40.433807858522
 Total CCSD energy + MP2 correction [au]:             -40.434509483222
 Total CCSD energy + MP2 + PPL corr. [au]:            -40.434306445052
 
 CPU time [min]:     0.392                   Wall time [min]:     0.013
 
 Calculation of (T) correction...
 
 
       67.65 MB memory is utilized for (T)

 0%       25%       50%       75%       100%
 |---------|---------|---------|---------| 
 
 (T) correction [au]:                                    -0.006568742235
 (T*) correction [au]:                                   -0.006591750335
 (T+) correction [au]:                                   -0.006591770554
 CCSD(T) correlation energy [au]:                        -0.227359405559
 CCSD(T) correlation energy + MP2 correction [au]:       -0.228061030259
 CCSD(T+) correlation en. + MP2 + PPL corr. [au]:        -0.227881020409
 Total CCSD(T) energy [au]:                             -40.440376600756
 Total CCSD(T) energy + MP2 correction [au]:            -40.441078225456
 Total CCSD(T+) energy + MP2 + PPL corr. [au]:          -40.440898215606
 
 CPU time [min]:     0.457                   Wall time [min]:     0.015
 
 ************************ 2023-02-04 11:40:16 *************************
                      Normal termination of mrcc.
 **********************************************************************
