 vasp.6.3.0 20Jan22 (build Dec 25 2023 18:06:01) complex                         
 executed on        HPECrayEX_GCC date 2024.11.22  13:19:45
 running 1024 mpi-ranks, with    1 threads/rank
 distrk:  each k-point on 1024 cores,    1 groups
 distr:  one band on NCORE=   8 cores,  128 groups


--------------------------------------------------------------------------------------------------------


 INCAR:
   SYSTEM = TiO2
   ISMEAR = 0
   SIGMA = 0.05
   EDIFF = 1E-7
   ALGO = Normal
   ISTART = 0
   IBRION = 2
   NSW = 1000
   ISYM = 0
   ISIF = 2
   EDIFFG = -0.01
   DIPOL = 0.5 0.5 0.5
   IDIPOL = 3
   LDIPOL = .TRUE.
   GGA = RE
   IVDW = 13
   VDW_S8 = 1.7468
   VDW_A1 = 0.5363
   VDW_A2 = 3.0726
   ENCUT = 600
   PREC = Accurate
   LASPH = .TRUE.
   LREAL = .FALSE.
   ISPIN = 1
   NELM = 200
   NELMIN = 8
   NCORE = 8
   KPAR = 1
   LWAVE = .FALSE.
   LCHARG = .FALSE.

 POTCAR:    PAW_PBE H 15Jun2001                   
 POTCAR:    PAW_PBE O 08Apr2002                   
 POTCAR:    PAW_PBE Ti_pv 07Sep2000               
 POTCAR:    PAW_PBE O 08Apr2002                   
 POTCAR:    PAW_PBE H 15Jun2001                   
   SHA256 =  030f79b5d3ab3cf0e668861823c8fb652ff669f3e15e46930bd03bfd63a607b6 H/POTCAR              
   COPYR  = (c) Copyright 15Jun2001 Georg Kresse                                                    
   COPYR  = This file is part of the software VASP. Any use, copying, and all other rights are regul
   COPYR  = If you do not have a valid VASP license, you may not use, copy or distribute this file. 
   VRHFIN =H: ultrasoft test                                                                        
   LEXCH  = PE                                                                                      
   EATOM  =    12.4884 eV,    0.9179 Ry                                                             
                                                                                                    
   TITEL  = PAW_PBE H 15Jun2001                                                                     
   LULTRA =        F    use ultrasoft PP ?                                                          
   IUNSCR =        0    unscreen: 0-lin 1-nonlin 2-no                                               
   RPACOR =    0.000    partial core radius                                                         
   POMASS =    1.000; ZVAL   =    1.000    mass and valenz                                          
   RCORE  =    1.100    outmost cutoff radius                                                       
   RWIGS  =    0.700; RWIGS  =    0.370    wigner-seitz radius (au A)                               
   ENMAX  =  250.000; ENMIN  =  200.000 eV                                                          
   RCLOC  =    0.701    cutoff for local pot                                                        
   LCOR   =        T    correct aug charges                                                         
   LPAW   =        T    paw PP                                                                      
   EAUG   =  400.000                                                                                
   RMAX   =    1.123    core radius for proj-oper                                                   
   RAUG   =    1.200    factor for augmentation sphere                                              
   RDEP   =    1.112    radius for radial grids                                                     
   RDEPT  =    0.926    core radius for aug-charge                                                  
                                                                                                    
   Atomic configuration                                                                             
    2 entries                                                                                       
     n  l   j            E        occ.                                                              
     1  0  0.50        -6.4927   1.0000                                                             
     2  1  0.50        -3.4015   0.0000                                                             
   Description                                                                                      
     l       E           TYP  RCUT    TYP  RCUT                                                     
     0     -6.4927494     23  1.100                                                                 
     0      6.8029130     23  1.100                                                                 
     1     -4.0817478     23  1.100                                                                 
  local pseudopotential read in
  atomic valenz-charges read in
  non local Contribution for L=           0  read in
    real space projection operators read in
  non local Contribution for L=           0  read in
    real space projection operators read in
  non local Contribution for L=           1  read in
    real space projection operators read in
    PAW grid and wavefunctions read in

   number of l-projection  operators is LMAX  =           3
   number of lm-projection operators is LMMAX =           5

 POTCAR:    PAW_PBE O 08Apr2002                   
   SHA256 =  818f92134a0a090dccd8ba1447fa70422a3b330e708bb4f08108d8ae51209ddf O/POTCAR              
   COPYR  = (c) Copyright 08Apr2002 Georg Kresse                                                    
   COPYR  = This file is part of the software VASP. Any use, copying, and all other rights are regul
   COPYR  = If you do not have a valid VASP license, you may not use, copy or distribute this file. 
   VRHFIN =O: s2p4                                                                                  
   LEXCH  = PE                                                                                      
   EATOM  =   432.3788 eV,   31.7789 Ry                                                             
                                                                                                    
   TITEL  = PAW_PBE O 08Apr2002                                                                     
   LULTRA =        F    use ultrasoft PP ?                                                          
   IUNSCR =        1    unscreen: 0-lin 1-nonlin 2-no                                               
   RPACOR =    1.200    partial core radius                                                         
   POMASS =   16.000; ZVAL   =    6.000    mass and valenz                                          
   RCORE  =    1.520    outmost cutoff radius                                                       
   RWIGS  =    1.550; RWIGS  =    0.820    wigner-seitz radius (au A)                               
   ENMAX  =  400.000; ENMIN  =  300.000 eV                                                          
   ICORE  =        2    local potential                                                             
   LCOR   =        T    correct aug charges                                                         
   LPAW   =        T    paw PP                                                                      
   EAUG   =  605.392                                                                                
   DEXC   =    0.000                                                                                
   RMAX   =    1.553    core radius for proj-oper                                                   
   RAUG   =    1.300    factor for augmentation sphere                                              
   RDEP   =    1.550    radius for radial grids                                                     
   RDEPT  =    1.329    core radius for aug-charge                                                  
                                                                                                    
   Atomic configuration                                                                             
    4 entries                                                                                       
     n  l   j            E        occ.                                                              
     1  0  0.50      -514.6923   2.0000                                                             
     2  0  0.50       -23.9615   2.0000                                                             
     2  1  0.50        -9.0305   4.0000                                                             
     3  2  1.50        -9.5241   0.0000                                                             
   Description                                                                                      
     l       E           TYP  RCUT    TYP  RCUT                                                     
     0    -23.9615318     23  1.200                                                                 
     0     -9.5240782     23  1.200                                                                 
     1     -9.0304911     23  1.520                                                                 
     1      8.1634956     23  1.520                                                                 
     2     -9.5240782      7  1.500                                                                 
  local pseudopotential read in
  partial core-charges read in
  partial kinetic energy density read in
  kinetic energy density of atom read in
  atomic valenz-charges read in
  non local Contribution for L=           0  read in
    real space projection operators read in
  non local Contribution for L=           0  read in
    real space projection operators read in
  non local Contribution for L=           1  read in
    real space projection operators read in
  non local Contribution for L=           1  read in
    real space projection operators read in
    PAW grid and wavefunctions read in

   number of l-projection  operators is LMAX  =           4
   number of lm-projection operators is LMMAX =           8

 POTCAR:    PAW_PBE Ti_pv 07Sep2000               
   SHA256 =  f757a1b2c6d082f4c628fa3d987464a8763bf92e53844ac0500b0e2ddc9ce5c0 Ti_pv/POTCAR          
   COPYR  = (c) Copyright 07Sep2000 Georg Kresse                                                    
   COPYR  = This file is part of the software VASP. Any use, copying, and all other rights are regul
   COPYR  = If you do not have a valid VASP license, you may not use, copy or distribute this file. 
   VRHFIN =Ti: d3 s1                                                                                
   LEXCH  = PE                                                                                      
   EATOM  =  1042.5995 eV,   76.6289 Ry                                                             
                                                                                                    
   TITEL  = PAW_PBE Ti_pv 07Sep2000                                                                 
   LULTRA =        F    use ultrasoft PP ?                                                          
   IUNSCR =        1    unscreen: 0-lin 1-nonlin 2-no                                               
   RPACOR =    2.200    partial core radius                                                         
   POMASS =   47.880; ZVAL   =   10.000    mass and valenz                                          
   RCORE  =    2.500    outmost cutoff radius                                                       
   RWIGS  =    2.500; RWIGS  =    1.323    wigner-seitz radius (au A)                               
   ENMAX  =  222.335; ENMIN  =  166.751 eV                                                          
   RCLOC  =    1.701    cutoff for local pot                                                        
   LCOR   =        T    correct aug charges                                                         
   LPAW   =        T    paw PP                                                                      
   EAUG   =  482.848                                                                                
   DEXC   =    0.000                                                                                
   RMAX   =    2.564    core radius for proj-oper                                                   
   RAUG   =    1.300    factor for augmentation sphere                                              
   RDEP   =    2.538    radius for radial grids                                                     
   RDEPT  =    1.952    core radius for aug-charge                                                  
                                                                                                    
   Atomic configuration                                                                             
    8 entries                                                                                       
     n  l   j            E        occ.                                                              
     1  0  0.50     -4865.3608   2.0000                                                             
     2  0  0.50      -533.1368   2.0000                                                             
     2  1  1.50      -440.5031   6.0000                                                             
     3  0  0.50       -59.3186   2.0000                                                             
     3  1  1.50       -35.7012   6.0000                                                             
     3  2  2.50        -1.9157   3.0000                                                             
     4  0  0.50        -3.7291   1.0000                                                             
     4  3  2.50        -1.3606   0.0000                                                             
   Description                                                                                      
     l       E           TYP  RCUT    TYP  RCUT                                                     
     1    -35.7012140     23  2.300                                                                 
     1     -1.3605826     23  2.300                                                                 
     2     -1.9156996     23  2.500                                                                 
     2     -0.4063033     23  2.500                                                                 
     0     -3.7290856     23  2.500                                                                 
     0     20.4087390     23  2.500                                                                 
  local pseudopotential read in
  partial core-charges read in
  partial kinetic energy density read in
  atomic valenz-charges read in
  non local Contribution for L=           1  read in
    real space projection operators read in
  non local Contribution for L=           1  read in
    real space projection operators read in
  non local Contribution for L=           2  read in
    real space projection operators read in
  non local Contribution for L=           2  read in
    real space projection operators read in
  non local Contribution for L=           0  read in
    real space projection operators read in
  non local Contribution for L=           0  read in
    real space projection operators read in
    PAW grid and wavefunctions read in

   number of l-projection  operators is LMAX  =           6
   number of lm-projection operators is LMMAX =          18

 POTCAR:    PAW_PBE O 08Apr2002                   
   SHA256 =  818f92134a0a090dccd8ba1447fa70422a3b330e708bb4f08108d8ae51209ddf O/POTCAR              
   COPYR  = (c) Copyright 08Apr2002 Georg Kresse                                                    
   COPYR  = This file is part of the software VASP. Any use, copying, and all other rights are regul
   COPYR  = If you do not have a valid VASP license, you may not use, copy or distribute this file. 
   VRHFIN =O: s2p4                                                                                  
   LEXCH  = PE                                                                                      
   EATOM  =   432.3788 eV,   31.7789 Ry                                                             
                                                                                                    
   TITEL  = PAW_PBE O 08Apr2002                                                                     
   LULTRA =        F    use ultrasoft PP ?                                                          
   IUNSCR =        1    unscreen: 0-lin 1-nonlin 2-no                                               
   RPACOR =    1.200    partial core radius                                                         
   POMASS =   16.000; ZVAL   =    6.000    mass and valenz                                          
   RCORE  =    1.520    outmost cutoff radius                                                       
   RWIGS  =    1.550; RWIGS  =    0.820    wigner-seitz radius (au A)                               
   ENMAX  =  400.000; ENMIN  =  300.000 eV                                                          
   ICORE  =        2    local potential                                                             
   LCOR   =        T    correct aug charges                                                         
   LPAW   =        T    paw PP                                                                      
   EAUG   =  605.392                                                                                
   DEXC   =    0.000                                                                                
   RMAX   =    1.553    core radius for proj-oper                                                   
   RAUG   =    1.300    factor for augmentation sphere                                              
   RDEP   =    1.550    radius for radial grids                                                     
   RDEPT  =    1.329    core radius for aug-charge                                                  
                                                                                                    
   Atomic configuration                                                                             
    4 entries                                                                                       
     n  l   j            E        occ.                                                              
     1  0  0.50      -514.6923   2.0000                                                             
     2  0  0.50       -23.9615   2.0000                                                             
     2  1  0.50        -9.0305   4.0000                                                             
     3  2  1.50        -9.5241   0.0000                                                             
   Description                                                                                      
     l       E           TYP  RCUT    TYP  RCUT                                                     
     0    -23.9615318     23  1.200                                                                 
     0     -9.5240782     23  1.200                                                                 
     1     -9.0304911     23  1.520                                                                 
     1      8.1634956     23  1.520                                                                 
     2     -9.5240782      7  1.500                                                                 
  local pseudopotential read in
  partial core-charges read in
  partial kinetic energy density read in
  kinetic energy density of atom read in
  atomic valenz-charges read in
  non local Contribution for L=           0  read in
    real space projection operators read in
  non local Contribution for L=           0  read in
    real space projection operators read in
  non local Contribution for L=           1  read in
    real space projection operators read in
  non local Contribution for L=           1  read in
    real space projection operators read in
    PAW grid and wavefunctions read in

   number of l-projection  operators is LMAX  =           4
   number of lm-projection operators is LMMAX =           8

 -----------------------------------------------------------------------------
|                                                                             |
|               ----> ADVICE to this user running VASP <----                  |
|                                                                             |
|     You have a (more or less) 'large supercell' and for larger cells it     |
|     might be more efficient to use real-space projection operators.         |
|     Therefore, try LREAL= Auto in the INCAR file.                           |
|     Mind: For very accurate calculation, you might also keep the            |
|     reciprocal projection scheme (i.e. LREAL=.FALSE.).                      |
|                                                                             |
 -----------------------------------------------------------------------------

 -----------------------------------------------------------------------------
|                                                                             |
|               ----> ADVICE to this user running VASP <----                  |
|                                                                             |
|     You enforced a specific xc type in the INCAR file but a different       |
|     type was found in the POTCAR file.                                      |
|     I HOPE YOU KNOW WHAT YOU ARE DOING!                                     |
|                                                                             |
 -----------------------------------------------------------------------------

  PAW_PBE H 15Jun2001                   :
 energy of atom  1       EATOM=  -12.4884
 kinetic energy error for atom=    0.0004 (will be added to EATOM!!)
  PAW_PBE O 08Apr2002                   :
 energy of atom  2       EATOM= -432.3788
 kinetic energy error for atom=    0.0168 (will be added to EATOM!!)
  PAW_PBE Ti_pv 07Sep2000               :
 energy of atom  3       EATOM=-1042.5995
 kinetic energy error for atom=    0.0007 (will be added to EATOM!!)
  PAW_PBE O 08Apr2002                   :
 energy of atom  4       EATOM= -432.3788
 kinetic energy error for atom=    0.0168 (will be added to EATOM!!)


 POSCAR:  H  O Ti  O
  positions in direct lattice
  velocities in cartesian coordinates
 -----------------------------------------------------------------------------
|                                                                             |
|           W    W    AA    RRRRR   N    N  II  N    N   GGGG   !!!           |
|           W    W   A  A   R    R  NN   N  II  NN   N  G    G  !!!           |
|           W    W  A    A  R    R  N N  N  II  N N  N  G       !!!           |
|           W WW W  AAAAAA  RRRRR   N  N N  II  N  N N  G  GGG   !            |
|           WW  WW  A    A  R   R   N   NN  II  N   NN  G    G                |
|           W    W  A    A  R    R  N    N  II  N    N   GGGG   !!!           |
|                                                                             |
|     Specifying the vdW parameters                                           |
|     VDW_S8 = 1.747                                                          |
|     VDW_A1 = 0.536                                                          |
|     VDW_A2 = 3.073                                                          |
|     in the INCAR file will overwrite the defaults for revpbe. Please        |
|     make sure that is what you intended.                                    |
|                                                                             |
 -----------------------------------------------------------------------------

 exchange correlation table for  LEXCH =       40
   RHO(1)=    0.500       N(1)  =     2000
   RHO(2)=  100.500       N(2)  =     4000



--------------------------------------------------------------------------------------------------------


 ion  position               nearest neighbor table
   1  0.512  0.549  0.802-   3 0.97
   2  0.615  0.495  0.783-   3 1.00
   3  0.538  0.490  0.783-   1 0.97   2 1.00  83 2.23
   4  0.750  0.625  0.287-  84 1.95 144 1.95  85 1.95 145 1.95 166 1.98  87 1.98  14 2.96  34 2.96

   5  0.000  0.750  0.287-  87 1.95 107 1.95 106 1.95  86 1.95  88 1.98  35 2.96  15 2.96
   6  0.000  0.625  0.394-  88 1.95 148 1.95  89 1.95 149 1.95  90 1.98  91 1.98  16 2.96  36 2.96

   7  0.750  0.750  0.394- 171 1.95 191 1.95  90 1.95 110 1.95  92 1.98  85 1.98  17 2.96  37 2.96

   8  0.750  0.625  0.500-  92 1.95  93 1.95 152 1.95 153 1.95  95 1.98 174 1.98  18 2.96  38 2.96

   9  0.000  0.750  0.500-  94 1.95  95 1.95 114 1.95 115 1.95  89 1.98  96 2.00  19 2.96  39 2.96

  10  0.008  0.625  0.604-  99 1.86  96 1.90 156 1.90  97 2.02 157 2.02  98 2.04  20 2.96  40 2.96

  11  0.757  0.750  0.610- 100 1.87  98 1.92 118 1.93 179 2.02 199 2.02  93 2.10  21 2.96  41 2.96

  12  0.752  0.626  0.719- 101 1.83 161 1.87 182 2.01 103 2.02 100 2.08 160 2.09  22 2.95  42 2.98

  13  0.001  0.750  0.708-  97 1.81 122 1.94 123 1.94 102 1.95 103 1.96  23 2.95  43 2.96
  14  0.750  0.875  0.287-  84 1.95 104 1.95  85 1.95 105 1.95 186 1.98 107 1.98   4 2.96  24 2.96

  15  0.000  0.000  0.287- 107 1.95 127 1.95 126 1.95 106 1.95 108 1.98  25 2.96   5 2.96
  16  0.000  0.875  0.394-  88 1.95 108 1.95  89 1.95 109 1.95 110 1.98 111 1.98   6 2.96  26 2.96

  17  0.750  0.000  0.394- 191 1.95 211 1.95 110 1.95 130 1.95 112 1.98 105 1.98   7 2.96  27 2.96

  18  0.750  0.875  0.500-  92 1.95  93 1.95 112 1.95 113 1.95 115 1.98 194 1.98   8 2.96  28 2.96

  19  0.000  0.000  0.500- 114 1.95 115 1.95 134 1.95 135 1.95 109 1.98 116 2.00   9 2.96  29 2.96

  20  0.008  0.875  0.604- 119 1.86  96 1.90 116 1.90 117 2.02  97 2.02 118 2.04  30 2.96  10 2.96

  21  0.757  0.000  0.610- 120 1.87 138 1.92 118 1.92 219 2.02 199 2.02 113 2.10  31 2.95  11 2.96

  22  0.750  0.875  0.720- 121 1.83 101 1.84 202 2.02 123 2.04 120 2.09 100 2.09  12 2.95  32 2.95

  23  0.001  1.000  0.708- 117 1.81 123 1.95 143 1.95 142 1.95 122 1.95  33 2.95  13 2.95
  24  0.750  0.125  0.287- 104 1.95 124 1.95 105 1.95 125 1.95 206 1.98 127 1.98  14 2.96  34 2.96

  25  0.000  0.250  0.287- 127 1.95 147 1.95 146 1.95 126 1.95 128 1.98  35 2.96  15 2.96
  26  0.000  0.125  0.394- 108 1.95 128 1.95 109 1.95 129 1.95 130 1.98 131 1.98  16 2.96  36 2.96

  27  0.750  0.250  0.394- 211 1.95 231 1.95 130 1.95 150 1.95 132 1.98 125 1.98  17 2.96  37 2.96

  28  0.750  0.125  0.500- 112 1.95 113 1.95 132 1.95 133 1.95 135 1.98 214 1.98  18 2.96  38 2.96

  29  0.000  0.250  0.500- 134 1.95 135 1.95 154 1.95 155 1.95 129 1.98 136 2.00  19 2.96  39 2.96

  30  0.008  0.125  0.604- 139 1.86 136 1.90 116 1.90 117 2.02 137 2.02 138 2.04  20 2.96  40 2.96

  31  0.757  0.250  0.610- 140 1.87 138 1.93 158 1.93 219 2.01 239 2.02 133 2.09  21 2.95  41 2.96

  32  0.750  0.124  0.720- 121 1.83 141 1.84 222 2.02 143 2.04 120 2.09 140 2.10  42 2.95  22 2.95

  33  0.001  0.250  0.708- 137 1.81 142 1.94 143 1.94 162 1.95 163 1.96  23 2.95  43 2.96
  34  0.750  0.375  0.287- 124 1.95 144 1.95 125 1.95 145 1.95 226 1.98 147 1.98   4 2.96  24 2.96

  35  0.000  0.500  0.287-  87 1.95 147 1.95 146 1.95  86 1.95 148 1.98  25 2.96   5 2.96
  36  0.000  0.375  0.394- 128 1.95 148 1.95 129 1.95 149 1.95 150 1.98 151 1.98   6 2.96  26 2.96

  37  0.750  0.500  0.394- 171 1.95 231 1.95  90 1.95 150 1.95 145 1.98 152 1.98   7 2.96  27 2.96

  38  0.750  0.375  0.500- 132 1.95 133 1.95 152 1.95 153 1.95 155 1.98 234 1.98   8 2.96  28 2.96

  39  0.000  0.500  0.500-  94 1.95  95 1.95 154 1.95 155 1.95 149 1.98 156 2.00   9 2.96  29 2.96

  40  0.008  0.375  0.604- 159 1.87 156 1.90 136 1.90 137 2.02 157 2.02 158 2.03  30 2.96  10 2.96

  41  0.757  0.500  0.610- 160 1.86  98 1.93 158 1.93 239 2.02 179 2.02 153 2.10  11 2.96  31 2.96

  42  0.752  0.374  0.719- 141 1.83 161 1.87 163 2.01 242 2.02 140 2.07 160 2.09  32 2.95  12 2.98

  43  0.002  0.500  0.708- 157 1.81 102 1.94 162 1.94 103 1.95 163 1.95  13 2.96  33 2.96
  44  0.250  0.625  0.287- 164 1.95 224 1.95 165 1.95 225 1.95  86 1.98 167 1.98  54 2.96  74 2.96

  45  0.500  0.750  0.287- 167 1.95 187 1.95 186 1.95 166 1.95 168 1.98  75 2.96  55 2.96
  46  0.500  0.625  0.394- 168 1.95 228 1.95 169 1.95 229 1.95 170 1.98 171 1.98  56 2.96  76 2.96

  47  0.250  0.750  0.394-  91 1.95 111 1.95 170 1.95 190 1.95 172 1.98 165 1.98  57 2.96  77 2.96

  48  0.250  0.625  0.500- 172 1.95 173 1.95 232 1.95 233 1.95  94 1.98 175 1.98  58 2.96  78 2.96

  49  0.500  0.750  0.500- 174 1.95 175 1.95 194 1.95 195 1.95 169 1.98 176 1.99  59 2.96  79 2.96

  50  0.508  0.623  0.605- 179 1.87 236 1.90 176 1.93 237 1.99 177 2.01 178 2.04  80 2.91  60 2.97

  51  0.257  0.750  0.611- 180 1.87 178 1.92 198 1.92 119 2.02  99 2.02 173 2.10  61 2.96  81 2.96

  52  0.251  0.625  0.720- 181 1.83 241 1.84 102 2.03 183 2.04 180 2.09 240 2.09  62 2.96  82 2.96

  53  0.501  0.750  0.707- 177 1.80 182 1.92 202 1.94 183 1.95 203 1.96  63 2.96  83 2.97
  54  0.250  0.875  0.287- 164 1.95 184 1.95 165 1.95 185 1.95 106 1.98 187 1.98  44 2.96  64 2.96

  55  0.500  0.000  0.287- 187 1.95 207 1.95 206 1.95 186 1.95 188 1.98  65 2.96  45 2.96
  56  0.500  0.875  0.394- 168 1.95 188 1.95 169 1.95 189 1.95 190 1.98 191 1.98  46 2.96  66 2.96

  57  0.250  0.000  0.394- 111 1.95 131 1.95 190 1.95 210 1.95 192 1.98 185 1.98  47 2.96  67 2.96

  58  0.250  0.875  0.500- 172 1.95 173 1.95 192 1.95 193 1.95 114 1.98 195 1.98  48 2.96  68 2.96

  59  0.500  0.000  0.500- 194 1.95 195 1.95 214 1.95 215 1.95 189 1.98 196 1.98  49 2.96  69 2.96

  60  0.508  0.874  0.603- 199 1.87 176 1.88 196 1.90 177 2.00 197 2.03 198 2.05  50 2.97  70 2.98

  61  0.257  1.000  0.611- 200 1.86 198 1.92 218 1.92 139 2.02 119 2.02 193 2.11  51 2.96  71 2.96

  62  0.251  0.875  0.720- 201 1.83 181 1.84 203 2.02 122 2.04 200 2.10 180 2.10  72 2.96  52 2.96

  63  0.500  1.000  0.707- 197 1.80 203 1.94 223 1.94 222 1.95 202 1.96  73 2.95  53 2.96
  64  0.250  0.125  0.287- 184 1.95 204 1.95 185 1.95 205 1.95 126 1.98 207 1.98  54 2.96  74 2.96

  65  0.500  0.250  0.287- 207 1.95 227 1.95 226 1.95 206 1.95 208 1.98  75 2.96  55 2.96
  66  0.500  0.125  0.394- 188 1.95 208 1.95 189 1.95 209 1.95 210 1.98 211 1.98  56 2.96  76 2.96

  67  0.250  0.250  0.394- 131 1.95 151 1.95 210 1.95 230 1.95 212 1.98 205 1.98  57 2.96  77 2.96

  68  0.250  0.125  0.500- 192 1.95 193 1.95 212 1.95 213 1.95 134 1.98 215 1.98  58 2.96  78 2.96

  69  0.500  0.250  0.500- 214 1.95 215 1.95 234 1.95 235 1.95 209 1.98 216 1.99  59 2.96  79 2.96

  70  0.508  0.126  0.603- 219 1.87 216 1.88 196 1.90 217 2.00 197 2.03 218 2.04  80 2.97  60 2.98

  71  0.257  0.250  0.611- 220 1.86 238 1.92 218 1.93 159 2.02 139 2.02 213 2.11  81 2.96  61 2.96

  72  0.251  0.125  0.720- 201 1.83 221 1.84 223 2.02 142 2.04 220 2.10 200 2.10  62 2.96  82 2.96

  73  0.501  0.250  0.707- 217 1.80 242 1.92 243 1.94 222 1.95 223 1.96  63 2.95  83 2.96
  74  0.250  0.375  0.287- 204 1.95 224 1.95 205 1.95 225 1.95 146 1.98 227 1.98  44 2.96  64 2.96

  75  0.500  0.500  0.287- 167 1.95 227 1.95 226 1.95 166 1.95 228 1.98  65 2.96  45 2.96
  76  0.500  0.375  0.394- 208 1.95 228 1.95 209 1.95 229 1.95 230 1.98 231 1.98  46 2.96  66 2.96

  77  0.250  0.500  0.394-  91 1.95 151 1.95 170 1.95 230 1.95 225 1.98 232 1.98  47 2.96  67 2.96

  78  0.250  0.375  0.500- 212 1.95 213 1.95 232 1.95 233 1.95 154 1.98 235 1.98  48 2.96  68 2.96

  79  0.500  0.500  0.500- 174 1.95 175 1.95 234 1.95 235 1.95 229 1.98 236 2.00  49 2.96  69 2.96

  80  0.508  0.377  0.605- 239 1.87 236 1.90 216 1.93 237 1.99 217 2.01 238 2.05  50 2.91  70 2.97

  81  0.257  0.500  0.611- 240 1.86 238 1.92 178 1.92 159 2.02  99 2.02 233 2.11  71 2.96  51 2.96

  82  0.251  0.375  0.720- 221 1.83 241 1.84 162 2.03 243 2.03 220 2.10 240 2.10  72 2.96  52 2.96

  83  0.502  0.499  0.712- 237 1.89 243 1.93 183 1.94 242 1.96 182 1.98   3 2.23  73 2.96  53 2.97

  84  0.750  0.750  0.245-   4 1.95  14 1.95
  85  0.750  0.750  0.329-   4 1.95  14 1.95   7 1.98
  86  0.098  0.625  0.287-   5 1.95  35 1.95  44 1.98
  87  0.902  0.625  0.287-   5 1.95  35 1.95   4 1.98
  88  0.000  0.750  0.352-   6 1.95  16 1.95   5 1.98
  89  0.000  0.750  0.435-   6 1.95  16 1.95   9 1.98
  90  0.848  0.625  0.394-   7 1.95  37 1.95   6 1.98
  91  0.152  0.625  0.394-  47 1.95  77 1.95   6 1.98
  92  0.750  0.750  0.458-   8 1.95  18 1.95   7 1.98
  93  0.750  0.750  0.542-   8 1.95  18 1.95  11 2.10
  94  0.098  0.625  0.500-   9 1.95  39 1.95  48 1.98
  95  0.902  0.625  0.500-   9 1.95  39 1.95   8 1.98
  96  0.001  0.750  0.565-  20 1.90  10 1.90   9 2.00
  97  0.000  0.750  0.649-  13 1.81  10 2.02  20 2.02
  98  0.851  0.625  0.607-  11 1.92  41 1.93  10 2.04
  99  0.151  0.625  0.607-  10 1.86  51 2.02  81 2.02
 100  0.754  0.751  0.671-  11 1.87  12 2.08  22 2.09
 101  0.750  0.749  0.756-  12 1.83  22 1.84
 102  0.095  0.625  0.719-  43 1.94  13 1.95  52 2.03
 103  0.907  0.624  0.720-  43 1.95  13 1.96  12 2.02
 104  0.750  0.000  0.245-  14 1.95  24 1.95
 105  0.750  0.000  0.329-  14 1.95  24 1.95  17 1.98
 106  0.098  0.875  0.287-   5 1.95  15 1.95  54 1.98
 107  0.902  0.875  0.287-   5 1.95  15 1.95  14 1.98
 108  0.000  0.000  0.352-  16 1.95  26 1.95  15 1.98
 109  0.000  0.000  0.435-  16 1.95  26 1.95  19 1.98
 110  0.848  0.875  0.394-   7 1.95  17 1.95  16 1.98
 111  0.152  0.875  0.394-  47 1.95  57 1.95  16 1.98
 112  0.750  0.000  0.458-  18 1.95  28 1.95  17 1.98
 113  0.750  0.000  0.542-  18 1.95  28 1.95  21 2.10
 114  0.098  0.875  0.500-   9 1.95  19 1.95  58 1.98
 115  0.902  0.875  0.500-   9 1.95  19 1.95  18 1.98
 116  0.001  1.000  0.565-  20 1.90  30 1.90  19 2.00
 117  0.001  1.000  0.649-  23 1.81  20 2.02  30 2.02
 118  0.851  0.875  0.607-  21 1.92  11 1.93  20 2.04
 119  0.151  0.875  0.607-  20 1.86  51 2.02  61 2.02
 120  0.752  1.000  0.672-  21 1.87  32 2.09  22 2.09
 121  0.751  1.000  0.756-  32 1.83  22 1.83
 122  0.095  0.875  0.719-  13 1.94  23 1.95  62 2.04
 123  0.907  0.875  0.719-  13 1.94  23 1.95  22 2.04
 124  0.750  0.250  0.245-  24 1.95  34 1.95
 125  0.750  0.250  0.329-  24 1.95  34 1.95  27 1.98
 126  0.098  0.125  0.287-  15 1.95  25 1.95  64 1.98
 127  0.902  0.125  0.287-  15 1.95  25 1.95  24 1.98
 128  0.000  0.250  0.352-  26 1.95  36 1.95  25 1.98
 129  0.000  0.250  0.435-  26 1.95  36 1.95  29 1.98
 130  0.848  0.125  0.394-  17 1.95  27 1.95  26 1.98
 131  0.152  0.125  0.394-  57 1.95  67 1.95  26 1.98
 132  0.750  0.250  0.458-  28 1.95  38 1.95  27 1.98
 133  0.750  0.250  0.542-  28 1.95  38 1.95  31 2.09
 134  0.098  0.125  0.500-  19 1.95  29 1.95  68 1.98
 135  0.902  0.125  0.500-  19 1.95  29 1.95  28 1.98
 136  0.001  0.250  0.565-  40 1.90  30 1.90  29 2.00
 137  0.001  0.250  0.649-  33 1.81  40 2.02  30 2.02
 138  0.851  0.125  0.607-  21 1.92  31 1.93  30 2.04
 139  0.151  0.125  0.607-  30 1.86  71 2.02  61 2.02
 140  0.754  0.249  0.671-  31 1.87  42 2.07  32 2.10
 141  0.750  0.251  0.755-  42 1.83  32 1.84
 142  0.095  0.125  0.719-  33 1.94  23 1.95  72 2.04
 143  0.907  0.125  0.719-  33 1.94  23 1.95  32 2.04
 144  0.750  0.500  0.245-   4 1.95  34 1.95
 145  0.750  0.500  0.329-   4 1.95  34 1.95  37 1.98
 146  0.098  0.375  0.287-  25 1.95  35 1.95  74 1.98
 147  0.902  0.375  0.287-  25 1.95  35 1.95  34 1.98
 148  0.000  0.500  0.352-   6 1.95  36 1.95  35 1.98
 149  0.000  0.500  0.435-   6 1.95  36 1.95  39 1.98
 150  0.848  0.375  0.394-  27 1.95  37 1.95  36 1.98
 151  0.152  0.375  0.394-  67 1.95  77 1.95  36 1.98
 152  0.750  0.500  0.458-   8 1.95  38 1.95  37 1.98
 153  0.750  0.500  0.542-   8 1.95  38 1.95  41 2.10
 154  0.098  0.375  0.500-  29 1.95  39 1.95  78 1.98
 155  0.902  0.375  0.500-  29 1.95  39 1.95  38 1.98
 156  0.001  0.500  0.565-  40 1.90  10 1.90  39 2.00
 157  0.001  0.500  0.649-  43 1.81  10 2.02  40 2.02
 158  0.851  0.375  0.607-  31 1.93  41 1.93  40 2.03
 159  0.151  0.375  0.607-  40 1.87  81 2.02  71 2.02
 160  0.756  0.500  0.671-  41 1.86  12 2.09  42 2.09
 161  0.741  0.500  0.756-  12 1.87  42 1.87
 162  0.095  0.375  0.719-  43 1.94  33 1.95  82 2.03
 163  0.907  0.376  0.720-  43 1.95  33 1.96  42 2.01
 164  0.250  0.750  0.245-  44 1.95  54 1.95
 165  0.250  0.750  0.329-  44 1.95  54 1.95  47 1.98
 166  0.598  0.625  0.287-  45 1.95  75 1.95   4 1.98
 167  0.402  0.625  0.287-  45 1.95  75 1.95  44 1.98
 168  0.500  0.750  0.352-  46 1.95  56 1.95  45 1.98
 169  0.500  0.750  0.435-  46 1.95  56 1.95  49 1.98
 170  0.348  0.625  0.394-  47 1.95  77 1.95  46 1.98
 171  0.652  0.625  0.394-   7 1.95  37 1.95  46 1.98
 172  0.250  0.750  0.458-  48 1.95  58 1.95  47 1.98
 173  0.250  0.750  0.542-  48 1.95  58 1.95  51 2.10
 174  0.598  0.625  0.500-  49 1.95  79 1.95   8 1.98
 175  0.402  0.625  0.500-  49 1.95  79 1.95  48 1.98
 176  0.501  0.749  0.565-  60 1.88  50 1.93  49 1.99
 177  0.499  0.751  0.648-  53 1.80  60 2.00  50 2.01
 178  0.351  0.625  0.607-  51 1.92  81 1.92  50 2.04
 179  0.652  0.625  0.608-  50 1.87  11 2.02  41 2.02
 180  0.252  0.750  0.672-  51 1.87  52 2.09  62 2.10
 181  0.251  0.750  0.756-  52 1.83  62 1.84
 182  0.598  0.629  0.714-  53 1.92  83 1.98  12 2.01
 183  0.408  0.626  0.720-  83 1.94  53 1.95  52 2.04
 184  0.250  0.000  0.245-  54 1.95  64 1.95
 185  0.250  0.000  0.329-  54 1.95  64 1.95  57 1.98
 186  0.598  0.875  0.287-  45 1.95  55 1.95  14 1.98
 187  0.402  0.875  0.287-  45 1.95  55 1.95  54 1.98
 188  0.500  0.000  0.352-  56 1.95  66 1.95  55 1.98
 189  0.500  0.000  0.435-  56 1.95  66 1.95  59 1.98
 190  0.348  0.875  0.394-  47 1.95  57 1.95  56 1.98
 191  0.652  0.875  0.394-   7 1.95  17 1.95  56 1.98
 192  0.250  0.000  0.458-  58 1.95  68 1.95  57 1.98
 193  0.250  0.000  0.542-  58 1.95  68 1.95  61 2.11
 194  0.598  0.875  0.500-  49 1.95  59 1.95  18 1.98
 195  0.402  0.875  0.500-  49 1.95  59 1.95  58 1.98
 196  0.501  0.000  0.565-  60 1.90  70 1.90  59 1.98
 197  0.501  1.000  0.648-  63 1.80  60 2.03  70 2.03
 198  0.351  0.875  0.607-  61 1.92  51 1.92  60 2.05
 199  0.652  0.875  0.607-  60 1.87  11 2.02  21 2.02
 200  0.251  1.000  0.671-  61 1.86  62 2.10  72 2.10
 201  0.250  1.000  0.756-  62 1.83  72 1.83
 202  0.595  0.875  0.718-  53 1.94  63 1.96  22 2.02
 203  0.407  0.876  0.718-  63 1.94  53 1.96  62 2.02
 204  0.250  0.250  0.245-  64 1.95  74 1.95
 205  0.250  0.250  0.329-  64 1.95  74 1.95  67 1.98
 206  0.598  0.125  0.287-  55 1.95  65 1.95  24 1.98
 207  0.402  0.125  0.287-  55 1.95  65 1.95  64 1.98
 208  0.500  0.250  0.352-  66 1.95  76 1.95  65 1.98
 209  0.500  0.250  0.435-  66 1.95  76 1.95  69 1.98
 210  0.348  0.125  0.394-  57 1.95  67 1.95  66 1.98
 211  0.652  0.125  0.394-  17 1.95  27 1.95  66 1.98
 212  0.250  0.250  0.458-  68 1.95  78 1.95  67 1.98
 213  0.250  0.250  0.542-  68 1.95  78 1.95  71 2.11
 214  0.598  0.125  0.500-  59 1.95  69 1.95  28 1.98
 215  0.402  0.125  0.500-  59 1.95  69 1.95  68 1.98
 216  0.501  0.251  0.565-  70 1.88  80 1.93  69 1.99
 217  0.500  0.248  0.648-  73 1.80  70 2.00  80 2.01
 218  0.351  0.125  0.607-  61 1.92  71 1.93  70 2.04
 219  0.652  0.125  0.607-  70 1.87  31 2.01  21 2.02
 220  0.251  0.250  0.671-  71 1.86  72 2.10  82 2.10
 221  0.251  0.250  0.756-  82 1.83  72 1.84
 222  0.595  0.125  0.718-  73 1.95  63 1.95  32 2.02
 223  0.407  0.124  0.718-  63 1.94  73 1.96  72 2.02
 224  0.250  0.500  0.245-  44 1.95  74 1.95
 225  0.250  0.500  0.329-  44 1.95  74 1.95  77 1.98
 226  0.598  0.375  0.287-  65 1.95  75 1.95  34 1.98
 227  0.402  0.375  0.287-  65 1.95  75 1.95  74 1.98
 228  0.500  0.500  0.352-  46 1.95  76 1.95  75 1.98
 229  0.500  0.500  0.435-  46 1.95  76 1.95  79 1.98
 230  0.348  0.375  0.394-  67 1.95  77 1.95  76 1.98
 231  0.652  0.375  0.394-  27 1.95  37 1.95  76 1.98
 232  0.250  0.500  0.458-  48 1.95  78 1.95  77 1.98
 233  0.250  0.500  0.542-  48 1.95  78 1.95  81 2.11
 234  0.598  0.375  0.500-  69 1.95  79 1.95  38 1.98
 235  0.402  0.375  0.500-  69 1.95  79 1.95  78 1.98
 236  0.501  0.500  0.566-  50 1.90  80 1.90  79 2.00
 237  0.500  0.500  0.650-  83 1.89  50 1.99  80 1.99
 238  0.351  0.375  0.607-  71 1.92  81 1.92  80 2.05
 239  0.652  0.375  0.608-  80 1.87  31 2.02  41 2.02
 240  0.251  0.500  0.672-  81 1.86  52 2.09  82 2.10
 241  0.252  0.500  0.756-  82 1.84  52 1.84
 242  0.598  0.371  0.714-  73 1.92  83 1.96  42 2.02
 243  0.407  0.374  0.718-  83 1.93  73 1.94  82 2.03


IMPORTANT INFORMATION: All symmetrisations will be switched off!
NOSYMM: (Re-)initialisation of all symmetry stuff for point group C_1.


----------------------------------------------------------------------------------------

                                     Primitive cell                                     

  volume of cell :    4700.2642

  direct lattice vectors                    reciprocal lattice vectors
    13.003962940  0.000000000  0.000000000     0.076899635  0.000000000  0.000000000
     0.000000000 11.830322230  0.000000000     0.000000000  0.084528551  0.000000000
     0.000000000  0.000000000 30.552726600     0.000000000  0.000000000  0.032730303

  length of vectors
    13.003962940 11.830322230 30.552726600     0.076899635  0.084528551  0.032730303

  position of ions in fractional coordinates (direct lattice)
     0.512467790  0.548519140  0.802278140
     0.614713308  0.494846137  0.782769138
     0.538245781  0.490134010  0.782757158
     0.750000000  0.625000000  0.287188176
     0.000000000  0.750000000  0.287188176
     0.000000000  0.625000000  0.393594088
     0.750000000  0.750000000  0.393594088
     0.750000000  0.625000000  0.500000000
     0.000000000  0.750000000  0.500000000
     0.008027157  0.625058458  0.604032589
     0.756938570  0.750069393  0.610221516
     0.751577011  0.625875763  0.719209682
     0.000638458  0.750254877  0.708148740
     0.750000000  0.875000000  0.287188176
     0.000000000  0.000000000  0.287188176
     0.000000000  0.875000000  0.393594088
     0.750000000  0.000000000  0.393594088
     0.750000000  0.875000000  0.500000000
     0.000000000  0.000000000  0.500000000
     0.008081215  0.875017505  0.604104494
     0.756639455  0.000025444  0.610495886
     0.750314622  0.875094378  0.720158029
     0.000816304  0.999941735  0.708112360
     0.750000000  0.125000000  0.287188176
     0.000000000  0.250000000  0.287188176
     0.000000000  0.125000000  0.393594088
     0.750000000  0.250000000  0.393594088
     0.750000000  0.125000000  0.500000000
     0.000000000  0.250000000  0.500000000
     0.008286301  0.124952266  0.604086905
     0.756952572  0.249787427  0.610193366
     0.750262694  0.124424263  0.720147405
     0.000856906  0.249613330  0.708129187
     0.750000000  0.375000000  0.287188176
     0.000000000  0.500000000  0.287188176
     0.000000000  0.375000000  0.393594088
     0.750000000  0.500000000  0.393594088
     0.750000000  0.375000000  0.500000000
     0.000000000  0.500000000  0.500000000
     0.007823761  0.374987488  0.604034522
     0.757189771  0.500075951  0.610376075
     0.752226618  0.373585529  0.719188316
     0.001717898  0.500081003  0.708068620
     0.250000000  0.625000000  0.287188176
     0.500000000  0.750000000  0.287188176
     0.500000000  0.625000000  0.393594088
     0.250000000  0.750000000  0.393594088
     0.250000000  0.625000000  0.500000000
     0.500000000  0.750000000  0.500000000
     0.507922206  0.622897288  0.605219412
     0.257011015  0.749948215  0.610518788
     0.251263528  0.625177621  0.720220212
     0.501355067  0.750173024  0.707004813
     0.250000000  0.875000000  0.287188176
     0.500000000  0.000000000  0.287188176
     0.500000000  0.875000000  0.393594088
     0.250000000  0.000000000  0.393594088
     0.250000000  0.875000000  0.500000000
     0.500000000  0.000000000  0.500000000
     0.508065271  0.874102186  0.603117147
     0.256919577  0.999926981  0.610556176
     0.251472711  0.875067875  0.720238308
     0.500142249  0.999963421  0.707155302
     0.250000000  0.125000000  0.287188176
     0.500000000  0.250000000  0.287188176
     0.500000000  0.125000000  0.393594088
     0.250000000  0.250000000  0.393594088
     0.250000000  0.125000000  0.500000000
     0.500000000  0.250000000  0.500000000
     0.507924446  0.125935425  0.603173222
     0.256893153  0.250076602  0.610550186
     0.251433737  0.124920604  0.720185103
     0.501332687  0.249708400  0.707224374
     0.250000000  0.375000000  0.287188176
     0.500000000  0.500000000  0.287188176
     0.500000000  0.375000000  0.393594088
     0.250000000  0.500000000  0.393594088
     0.250000000  0.375000000  0.500000000
     0.500000000  0.500000000  0.500000000
     0.508107139  0.376917696  0.605406536
     0.256609780  0.499940557  0.610647838
     0.251141602  0.374877538  0.720174928
     0.501778858  0.499297562  0.711558552
     0.750000000  0.750000000  0.245477273
     0.750000000  0.750000000  0.328899080
     0.097999497  0.625000000  0.287188176
     0.902000503  0.625000000  0.287188176
     0.000000000  0.750000000  0.351883185
     0.000000000  0.750000000  0.435304992
     0.847999497  0.625000000  0.393594088
     0.152000503  0.625000000  0.393594088
     0.750000000  0.750000000  0.458289097
     0.750000000  0.750000000  0.541710903
     0.097999497  0.625000000  0.500000000
     0.902000503  0.625000000  0.500000000
     0.001300365  0.750120176  0.565312852
     0.000483040  0.749832841  0.649033832
     0.851447206  0.625314880  0.606511666
     0.151162500  0.625138404  0.607114134
     0.754190179  0.750677399  0.671398327
     0.749665191  0.749039249  0.755534269
     0.095332523  0.625088957  0.718659594
     0.906986551  0.624237317  0.719637520
     0.750000000  0.000000000  0.245477273
     0.750000000  0.000000000  0.328899080
     0.097999497  0.875000000  0.287188176
     0.902000503  0.875000000  0.287188176
     0.000000000  0.000000000  0.351883185
     0.000000000  0.000000000  0.435304992
     0.847999497  0.875000000  0.393594088
     0.152000503  0.875000000  0.393594088
     0.750000000  0.000000000  0.458289097
     0.750000000  0.000000000  0.541710903
     0.097999497  0.875000000  0.500000000
     0.902000503  0.875000000  0.500000000
     0.001384818  0.999954159  0.565321461
     0.000976237  0.999980537  0.649002073
     0.851328135  0.875373352  0.606785086
     0.151184860  0.874739255  0.607160625
     0.751823901  0.999965429  0.671653142
     0.750898364  0.999859253  0.755832272
     0.094988520  0.874572004  0.718521138
     0.906915831  0.874966803  0.719063406
     0.750000000  0.250000000  0.245477273
     0.750000000  0.250000000  0.328899080
     0.097999497  0.125000000  0.287188176
     0.902000503  0.125000000  0.287188176
     0.000000000  0.250000000  0.351883185
     0.000000000  0.250000000  0.435304992
     0.847999497  0.125000000  0.393594088
     0.152000503  0.125000000  0.393594088
     0.750000000  0.250000000  0.458289097
     0.750000000  0.250000000  0.541710903
     0.097999497  0.125000000  0.500000000
     0.902000503  0.125000000  0.500000000
     0.001320006  0.249919786  0.565319115
     0.000651532  0.250082180  0.649025493
     0.851319707  0.124655546  0.606816631
     0.151182447  0.125027526  0.607059132
     0.754086466  0.249470117  0.671384039
     0.749806246  0.250743595  0.755445613
     0.094927083  0.125232044  0.718625788
     0.906886644  0.124976553  0.718955034
     0.750000000  0.500000000  0.245477273
     0.750000000  0.500000000  0.328899080
     0.097999497  0.375000000  0.287188176
     0.902000503  0.375000000  0.287188176
     0.000000000  0.500000000  0.351883185
     0.000000000  0.500000000  0.435304992
     0.847999497  0.375000000  0.393594088
     0.152000503  0.375000000  0.393594088
     0.750000000  0.500000000  0.458289097
     0.750000000  0.500000000  0.541710903
     0.097999497  0.375000000  0.500000000
     0.902000503  0.375000000  0.500000000
     0.001275020  0.500007037  0.565306083
     0.000588473  0.500073442  0.648963982
     0.851492563  0.374713563  0.606542486
     0.151137635  0.375034375  0.607139141
     0.756099146  0.500129494  0.671265188
     0.740547924  0.499796289  0.755627462
     0.095275891  0.374986062  0.718598515
     0.907032751  0.375675742  0.719618251
     0.250000000  0.750000000  0.245477273
     0.250000000  0.750000000  0.328899080
     0.597999497  0.625000000  0.287188176
     0.402000503  0.625000000  0.287188176
     0.500000000  0.750000000  0.351883185
     0.500000000  0.750000000  0.435304992
     0.347999497  0.625000000  0.393594088
     0.652000503  0.625000000  0.393594088
     0.250000000  0.750000000  0.458289097
     0.250000000  0.750000000  0.541710903
     0.597999497  0.625000000  0.500000000
     0.402000503  0.625000000  0.500000000
     0.501401300  0.748769528  0.565162274
     0.498923928  0.751313079  0.648105494
     0.350773511  0.624918005  0.606895626
     0.651803716  0.625101577  0.607592024
     0.252268649  0.749634843  0.671587370
     0.251134159  0.749964605  0.755839876
     0.597637361  0.629069221  0.714140448
     0.408422398  0.625635079  0.719764692
     0.250000000  0.000000000  0.245477273
     0.250000000  0.000000000  0.328899080
     0.597999497  0.875000000  0.287188176
     0.402000503  0.875000000  0.287188176
     0.500000000  0.000000000  0.351883185
     0.500000000  0.000000000  0.435304992
     0.347999497  0.875000000  0.393594088
     0.652000503  0.875000000  0.393594088
     0.250000000  0.000000000  0.458289097
     0.250000000  0.000000000  0.541710903
     0.597999497  0.875000000  0.500000000
     0.402000503  0.875000000  0.500000000
     0.501070554  0.000006664  0.564864057
     0.501130415  0.999917230  0.648239739
     0.350907335  0.875194743  0.606669331
     0.651620998  0.874832865  0.606968728
     0.251089989  0.999914920  0.671481990
     0.250433058  0.999981010  0.755756334
     0.595195304  0.874875040  0.718137422
     0.406727917  0.875815428  0.718380931
     0.250000000  0.250000000  0.245477273
     0.250000000  0.250000000  0.328899080
     0.597999497  0.125000000  0.287188176
     0.402000503  0.125000000  0.287188176
     0.500000000  0.250000000  0.351883185
     0.500000000  0.250000000  0.435304992
     0.347999497  0.125000000  0.393594088
     0.652000503  0.125000000  0.393594088
     0.250000000  0.250000000  0.458289097
     0.250000000  0.250000000  0.541710903
     0.597999497  0.125000000  0.500000000
     0.402000503  0.125000000  0.500000000
     0.501432292  0.251336660  0.565233237
     0.499639594  0.248290240  0.648235864
     0.350966111  0.124823902  0.606728070
     0.651685744  0.125120768  0.606942073
     0.251179192  0.249807310  0.671486235
     0.251314821  0.250094685  0.755708348
     0.595235927  0.124674599  0.718149925
     0.406648509  0.124159932  0.718221214
     0.250000000  0.500000000  0.245477273
     0.250000000  0.500000000  0.328899080
     0.597999497  0.375000000  0.287188176
     0.402000503  0.375000000  0.287188176
     0.500000000  0.500000000  0.351883185
     0.500000000  0.500000000  0.435304992
     0.347999497  0.375000000  0.393594088
     0.652000503  0.375000000  0.393594088
     0.250000000  0.500000000  0.458289097
     0.250000000  0.500000000  0.541710903
     0.597999497  0.375000000  0.500000000
     0.402000503  0.375000000  0.500000000
     0.501433440  0.499793423  0.565537470
     0.500108823  0.500394971  0.649619809
     0.350809997  0.374977677  0.607105479
     0.651830440  0.375020780  0.607623516
     0.251462483  0.500428511  0.671607411
     0.252210651  0.499915051  0.755752067
     0.597571656  0.371463219  0.713931802
     0.407360289  0.373954217  0.717865681

  ion indices of the primitive-cell ions
   primitive index   ion index
                 1           1
                 2           2
                 3           3
                 4           4
                 5           5
                 6           6
                 7           7
                 8           8
                 9           9
                10          10
                11          11
                12          12
                13          13
                14          14
                15          15
                16          16
                17          17
                18          18
                19          19
                20          20
                21          21
                22          22
                23          23
                24          24
                25          25
                26          26
                27          27
                28          28
                29          29
                30          30
                31          31
                32          32
                33          33
                34          34
                35          35
                36          36
                37          37
                38          38
                39          39
                40          40
                41          41
                42          42
                43          43
                44          44
                45          45
                46          46
                47          47
                48          48
                49          49
                50          50
                51          51
                52          52
                53          53
                54          54
                55          55
                56          56
                57          57
                58          58
                59          59
                60          60
                61          61
                62          62
                63          63
                64          64
                65          65
                66          66
                67          67
                68          68
                69          69
                70          70
                71          71
                72          72
                73          73
                74          74
                75          75
                76          76
                77          77
                78          78
                79          79
                80          80
                81          81
                82          82
                83          83
                84          84
                85          85
                86          86
                87          87
                88          88
                89          89
                90          90
                91          91
                92          92
                93          93
                94          94
                95          95
                96          96
                97          97
                98          98
                99          99
               100         100
               101         101
               102         102
               103         103
               104         104
               105         105
               106         106
               107         107
               108         108
               109         109
               110         110
               111         111
               112         112
               113         113
               114         114
               115         115
               116         116
               117         117
               118         118
               119         119
               120         120
               121         121
               122         122
               123         123
               124         124
               125         125
               126         126
               127         127
               128         128
               129         129
               130         130
               131         131
               132         132
               133         133
               134         134
               135         135
               136         136
               137         137
               138         138
               139         139
               140         140
               141         141
               142         142
               143         143
               144         144
               145         145
               146         146
               147         147
               148         148
               149         149
               150         150
               151         151
               152         152
               153         153
               154         154
               155         155
               156         156
               157         157
               158         158
               159         159
               160         160
               161         161
               162         162
               163         163
               164         164
               165         165
               166         166
               167         167
               168         168
               169         169
               170         170
               171         171
               172         172
               173         173
               174         174
               175         175
               176         176
               177         177
               178         178
               179         179
               180         180
               181         181
               182         182
               183         183
               184         184
               185         185
               186         186
               187         187
               188         188
               189         189
               190         190
               191         191
               192         192
               193         193
               194         194
               195         195
               196         196
               197         197
               198         198
               199         199
               200         200
               201         201
               202         202
               203         203
               204         204
               205         205
               206         206
               207         207
               208         208
               209         209
               210         210
               211         211
               212         212
               213         213
               214         214
               215         215
               216         216
               217         217
               218         218
               219         219
               220         220
               221         221
               222         222
               223         223
               224         224
               225         225
               226         226
               227         227
               228         228
               229         229
               230         230
               231         231
               232         232
               233         233
               234         234
               235         235
               236         236
               237         237
               238         238
               239         239
               240         240
               241         241
               242         242
               243         243

----------------------------------------------------------------------------------------



 KPOINTS: pymatgen v2020.8.13 with grid density = 

Automatic generation of k-mesh.
 Grid dimensions read from file:
 generate k-points for:    2    2    1

 Generating k-lattice:

  Cartesian coordinates                     Fractional coordinates (reciprocal lattice)
     0.038449817  0.000000000  0.000000000     0.500000000  0.000000000  0.000000000
     0.000000000  0.042264276  0.000000000     0.000000000  0.500000000  0.000000000
     0.000000000  0.000000000  0.032730303     0.000000000  0.000000000  1.000000000

  Length of vectors
     0.038449817  0.042264276  0.032730303

  Shift w.r.t. Gamma in fractional coordinates (k-lattice)
     0.000000000  0.000000000  0.000000000

 
 Subroutine IBZKPT returns following result:
 ===========================================
 
 Found      4 irreducible k-points:
 
 Following reciprocal coordinates:
            Coordinates               Weight
  0.000000  0.000000  0.000000      1.000000
  0.500000  0.000000  0.000000      1.000000
  0.000000  0.500000  0.000000      1.000000
  0.500000  0.500000  0.000000      1.000000
 
 Following cartesian coordinates:
            Coordinates               Weight
  0.000000  0.000000  0.000000      1.000000
  0.038450  0.000000  0.000000      1.000000
  0.000000  0.042264  0.000000      1.000000
  0.038450  0.042264  0.000000      1.000000
 


--------------------------------------------------------------------------------------------------------




 Dimension of arrays:
   k-points           NKPTS =      4   k-points in BZ     NKDIM =      4   number of bands    NBANDS=   1152
   number of dos      NEDOS =    301   number of ions     NIONS =    243
   non local maximal  LDIM  =      6   non local SUM 2l+1 LMDIM =     18
   total plane-waves  NPLWV = ******
   max r-space proj   IRMAX =      1   max aug-charges    IRDMAX=  21607
   dimension x,y,z NGX =   108 NGY =   96 NGZ =  250
   dimension x,y,z NGXF=   216 NGYF=  192 NGZF=  500
   support grid    NGXF=   216 NGYF=  192 NGZF=  500
   ions per type =               2   1  80 160
   NGX,Y,Z   is equivalent  to a cutoff of  13.81, 13.49, 13.60 a.u.
   NGXF,Y,Z  is equivalent  to a cutoff of  27.61, 26.98, 27.21 a.u.

 SYSTEM =  TiO2                                    
 POSCAR =   H  O Ti  O                             

--------------------------------------------------------------------------------------------------------


  energy-cutoff  :      600.00
  volume of cell :     4700.26
      direct lattice vectors                 reciprocal lattice vectors
    13.003962940  0.000000000  0.000000000     0.076899635  0.000000000  0.000000000
     0.000000000 11.830322230  0.000000000     0.000000000  0.084528551  0.000000000
     0.000000000  0.000000000 30.552726600     0.000000000  0.000000000  0.032730303

  length of vectors
    13.003962940 11.830322230 30.552726600     0.076899635  0.084528551  0.032730303



 k-points in units of 2pi/SCALE and weight: pymatgen v2020.8.13 with grid density = 
   0.00000000  0.00000000  0.00000000       0.250
   0.03844982  0.00000000  0.00000000       0.250
   0.00000000  0.04226428  0.00000000       0.250
   0.03844982  0.04226428  0.00000000       0.250

 k-points in reciprocal lattice and weights: pymatgen v2020.8.13 with grid density = 
   0.00000000  0.00000000  0.00000000       0.250
   0.50000000  0.00000000  0.00000000       0.250
   0.00000000  0.50000000  0.00000000       0.250
   0.50000000  0.50000000  0.00000000       0.250

 position of ions in fractional coordinates (direct lattice) 
   0.51246779  0.54851914  0.80227814
   0.61471331  0.49484614  0.78276914
   0.53824578  0.49013401  0.78275716
   0.75000000  0.62500000  0.28718818
   0.00000000  0.75000000  0.28718818
   0.00000000  0.62500000  0.39359409
   0.75000000  0.75000000  0.39359409
   0.75000000  0.62500000  0.50000000
   0.00000000  0.75000000  0.50000000
   0.00802716  0.62505846  0.60403259
   0.75693857  0.75006939  0.61022152
   0.75157701  0.62587576  0.71920968
   0.00063846  0.75025488  0.70814874
   0.75000000  0.87500000  0.28718818
   0.00000000  0.00000000  0.28718818
   0.00000000  0.87500000  0.39359409
   0.75000000  0.00000000  0.39359409
   0.75000000  0.87500000  0.50000000
   0.00000000  0.00000000  0.50000000
   0.00808122  0.87501751  0.60410449
   0.75663945  0.00002544  0.61049589
   0.75031462  0.87509438  0.72015803
   0.00081630  0.99994173  0.70811236
   0.75000000  0.12500000  0.28718818
   0.00000000  0.25000000  0.28718818
   0.00000000  0.12500000  0.39359409
   0.75000000  0.25000000  0.39359409
   0.75000000  0.12500000  0.50000000
   0.00000000  0.25000000  0.50000000
   0.00828630  0.12495227  0.60408691
   0.75695257  0.24978743  0.61019337
   0.75026269  0.12442426  0.72014741
   0.00085691  0.24961333  0.70812919
   0.75000000  0.37500000  0.28718818
   0.00000000  0.50000000  0.28718818
   0.00000000  0.37500000  0.39359409
   0.75000000  0.50000000  0.39359409
   0.75000000  0.37500000  0.50000000
   0.00000000  0.50000000  0.50000000
   0.00782376  0.37498749  0.60403452
   0.75718977  0.50007595  0.61037607
   0.75222662  0.37358553  0.71918832
   0.00171790  0.50008100  0.70806862
   0.25000000  0.62500000  0.28718818
   0.50000000  0.75000000  0.28718818
   0.50000000  0.62500000  0.39359409
   0.25000000  0.75000000  0.39359409
   0.25000000  0.62500000  0.50000000
   0.50000000  0.75000000  0.50000000
   0.50792221  0.62289729  0.60521941
   0.25701102  0.74994822  0.61051879
   0.25126353  0.62517762  0.72022021
   0.50135507  0.75017302  0.70700481
   0.25000000  0.87500000  0.28718818
   0.50000000  0.00000000  0.28718818
   0.50000000  0.87500000  0.39359409
   0.25000000  0.00000000  0.39359409
   0.25000000  0.87500000  0.50000000
   0.50000000  0.00000000  0.50000000
   0.50806527  0.87410219  0.60311715
   0.25691958  0.99992698  0.61055618
   0.25147271  0.87506788  0.72023831
   0.50014225  0.99996342  0.70715530
   0.25000000  0.12500000  0.28718818
   0.50000000  0.25000000  0.28718818
   0.50000000  0.12500000  0.39359409
   0.25000000  0.25000000  0.39359409
   0.25000000  0.12500000  0.50000000
   0.50000000  0.25000000  0.50000000
   0.50792445  0.12593543  0.60317322
   0.25689315  0.25007660  0.61055019
   0.25143374  0.12492060  0.72018510
   0.50133269  0.24970840  0.70722437
   0.25000000  0.37500000  0.28718818
   0.50000000  0.50000000  0.28718818
   0.50000000  0.37500000  0.39359409
   0.25000000  0.50000000  0.39359409
   0.25000000  0.37500000  0.50000000
   0.50000000  0.50000000  0.50000000
   0.50810714  0.37691770  0.60540654
   0.25660978  0.49994056  0.61064784
   0.25114160  0.37487754  0.72017493
   0.50177886  0.49929756  0.71155855
   0.75000000  0.75000000  0.24547727
   0.75000000  0.75000000  0.32889908
   0.09799950  0.62500000  0.28718818
   0.90200050  0.62500000  0.28718818
   0.00000000  0.75000000  0.35188318
   0.00000000  0.75000000  0.43530499
   0.84799950  0.62500000  0.39359409
   0.15200050  0.62500000  0.39359409
   0.75000000  0.75000000  0.45828910
   0.75000000  0.75000000  0.54171090
   0.09799950  0.62500000  0.50000000
   0.90200050  0.62500000  0.50000000
   0.00130036  0.75012018  0.56531285
   0.00048304  0.74983284  0.64903383
   0.85144721  0.62531488  0.60651167
   0.15116250  0.62513840  0.60711413
   0.75419018  0.75067740  0.67139833
   0.74966519  0.74903925  0.75553427
   0.09533252  0.62508896  0.71865959
   0.90698655  0.62423732  0.71963752
   0.75000000  0.00000000  0.24547727
   0.75000000  0.00000000  0.32889908
   0.09799950  0.87500000  0.28718818
   0.90200050  0.87500000  0.28718818
   0.00000000  0.00000000  0.35188318
   0.00000000  0.00000000  0.43530499
   0.84799950  0.87500000  0.39359409
   0.15200050  0.87500000  0.39359409
   0.75000000  0.00000000  0.45828910
   0.75000000  0.00000000  0.54171090
   0.09799950  0.87500000  0.50000000
   0.90200050  0.87500000  0.50000000
   0.00138482  0.99995416  0.56532146
   0.00097624  0.99998054  0.64900207
   0.85132814  0.87537335  0.60678509
   0.15118486  0.87473926  0.60716063
   0.75182390  0.99996543  0.67165314
   0.75089836  0.99985925  0.75583227
   0.09498852  0.87457200  0.71852114
   0.90691583  0.87496680  0.71906341
   0.75000000  0.25000000  0.24547727
   0.75000000  0.25000000  0.32889908
   0.09799950  0.12500000  0.28718818
   0.90200050  0.12500000  0.28718818
   0.00000000  0.25000000  0.35188318
   0.00000000  0.25000000  0.43530499
   0.84799950  0.12500000  0.39359409
   0.15200050  0.12500000  0.39359409
   0.75000000  0.25000000  0.45828910
   0.75000000  0.25000000  0.54171090
   0.09799950  0.12500000  0.50000000
   0.90200050  0.12500000  0.50000000
   0.00132001  0.24991979  0.56531911
   0.00065153  0.25008218  0.64902549
   0.85131971  0.12465555  0.60681663
   0.15118245  0.12502753  0.60705913
   0.75408647  0.24947012  0.67138404
   0.74980625  0.25074360  0.75544561
   0.09492708  0.12523204  0.71862579
   0.90688664  0.12497655  0.71895503
   0.75000000  0.50000000  0.24547727
   0.75000000  0.50000000  0.32889908
   0.09799950  0.37500000  0.28718818
   0.90200050  0.37500000  0.28718818
   0.00000000  0.50000000  0.35188318
   0.00000000  0.50000000  0.43530499
   0.84799950  0.37500000  0.39359409
   0.15200050  0.37500000  0.39359409
   0.75000000  0.50000000  0.45828910
   0.75000000  0.50000000  0.54171090
   0.09799950  0.37500000  0.50000000
   0.90200050  0.37500000  0.50000000
   0.00127502  0.50000704  0.56530608
   0.00058847  0.50007344  0.64896398
   0.85149256  0.37471356  0.60654249
   0.15113763  0.37503438  0.60713914
   0.75609915  0.50012949  0.67126519
   0.74054792  0.49979629  0.75562746
   0.09527589  0.37498606  0.71859852
   0.90703275  0.37567574  0.71961825
   0.25000000  0.75000000  0.24547727
   0.25000000  0.75000000  0.32889908
   0.59799950  0.62500000  0.28718818
   0.40200050  0.62500000  0.28718818
   0.50000000  0.75000000  0.35188318
   0.50000000  0.75000000  0.43530499
   0.34799950  0.62500000  0.39359409
   0.65200050  0.62500000  0.39359409
   0.25000000  0.75000000  0.45828910
   0.25000000  0.75000000  0.54171090
   0.59799950  0.62500000  0.50000000
   0.40200050  0.62500000  0.50000000
   0.50140130  0.74876953  0.56516227
   0.49892393  0.75131308  0.64810549
   0.35077351  0.62491800  0.60689563
   0.65180372  0.62510158  0.60759202
   0.25226865  0.74963484  0.67158737
   0.25113416  0.74996461  0.75583988
   0.59763736  0.62906922  0.71414045
   0.40842240  0.62563508  0.71976469
   0.25000000  0.00000000  0.24547727
   0.25000000  0.00000000  0.32889908
   0.59799950  0.87500000  0.28718818
   0.40200050  0.87500000  0.28718818
   0.50000000  0.00000000  0.35188318
   0.50000000  0.00000000  0.43530499
   0.34799950  0.87500000  0.39359409
   0.65200050  0.87500000  0.39359409
   0.25000000  0.00000000  0.45828910
   0.25000000  0.00000000  0.54171090
   0.59799950  0.87500000  0.50000000
   0.40200050  0.87500000  0.50000000
   0.50107055  0.00000666  0.56486406
   0.50113041  0.99991723  0.64823974
   0.35090733  0.87519474  0.60666933
   0.65162100  0.87483287  0.60696873
   0.25108999  0.99991492  0.67148199
   0.25043306  0.99998101  0.75575633
   0.59519530  0.87487504  0.71813742
   0.40672792  0.87581543  0.71838093
   0.25000000  0.25000000  0.24547727
   0.25000000  0.25000000  0.32889908
   0.59799950  0.12500000  0.28718818
   0.40200050  0.12500000  0.28718818
   0.50000000  0.25000000  0.35188318
   0.50000000  0.25000000  0.43530499
   0.34799950  0.12500000  0.39359409
   0.65200050  0.12500000  0.39359409
   0.25000000  0.25000000  0.45828910
   0.25000000  0.25000000  0.54171090
   0.59799950  0.12500000  0.50000000
   0.40200050  0.12500000  0.50000000
   0.50143229  0.25133666  0.56523324
   0.49963959  0.24829024  0.64823586
   0.35096611  0.12482390  0.60672807
   0.65168574  0.12512077  0.60694207
   0.25117919  0.24980731  0.67148624
   0.25131482  0.25009469  0.75570835
   0.59523593  0.12467460  0.71814992
   0.40664851  0.12415993  0.71822121
   0.25000000  0.50000000  0.24547727
   0.25000000  0.50000000  0.32889908
   0.59799950  0.37500000  0.28718818
   0.40200050  0.37500000  0.28718818
   0.50000000  0.50000000  0.35188318
   0.50000000  0.50000000  0.43530499
   0.34799950  0.37500000  0.39359409
   0.65200050  0.37500000  0.39359409
   0.25000000  0.50000000  0.45828910
   0.25000000  0.50000000  0.54171090
   0.59799950  0.37500000  0.50000000
   0.40200050  0.37500000  0.50000000
   0.50143344  0.49979342  0.56553747
   0.50010882  0.50039497  0.64961981
   0.35081000  0.37497768  0.60710548
   0.65183044  0.37502078  0.60762352
   0.25146248  0.50042851  0.67160741
   0.25221065  0.49991505  0.75575207
   0.59757166  0.37146322  0.71393180
   0.40736029  0.37395422  0.71786568

 position of ions in cartesian coordinates  (Angst):
   6.66411215  6.48915817 24.51178468
   7.99370907  5.85418925 23.91573146
   6.99932819  5.79844327 23.91536544
   9.75297220  7.39395139  8.77438183
   0.00000000  8.87274167  8.77438183
   0.00000000  7.39395139 12.02537257
   9.75297220  8.87274167 12.02537257
   9.75297220  7.39395139 15.27636330
   0.00000000  8.87274167 15.27636330
   0.10438485  7.39464297 18.45484255
   9.84320112  8.87356261 18.64393115
   9.77347960  7.40431196 21.97381677
   0.00830249  8.87575695 21.63587486
   9.75297220 10.35153195  8.77438183
   0.00000000  0.00000000  8.77438183
   0.00000000 10.35153195 12.02537257
   9.75297220  0.00000000 12.02537257
   9.75297220 10.35153195 15.27636330
   0.00000000  0.00000000 15.27636330
   0.10508782 10.35173905 18.45703946
   9.83931143  0.00030101 18.65231388
   9.75706354 10.35264848 22.00279137
   0.01061518 11.82963293 21.63476334
   9.75297220  1.47879028  8.77438183
   0.00000000  2.95758056  8.77438183
   0.00000000  1.47879028 12.02537257
   9.75297220  2.95758056 12.02537257
   9.75297220  1.47879028 15.27636330
   0.00000000  2.95758056 15.27636330
   0.10775475  1.47822557 18.45650205
   9.84338319  2.95506575 18.64307109
   9.75638826  1.47197913 22.00246679
   0.01114317  2.95300613 21.63527744
   9.75297220  4.43637084  8.77438183
   0.00000000  5.91516111  8.77438183
   0.00000000  4.43637084 12.02537257
   9.75297220  5.91516111 12.02537257
   9.75297220  4.43637084 15.27636330
   0.00000000  5.91516111 15.27636330
   0.10173990  4.43622281 18.45490162
   9.84646772  5.91605964 18.64865333
   9.78192706  4.41963718 21.97316399
   0.02233948  5.91611940 21.63342696
   3.25099073  7.39395139  8.77438183
   6.50198147  8.87274167  8.77438183
   6.50198147  7.39395139 12.02537257
   3.25099073  8.87274167 12.02537257
   3.25099073  7.39395139 15.27636330
   6.50198147  8.87274167 15.27636330
   6.60500155  7.36907563 18.49110323
   3.34216172  8.87212904 18.65301361
   3.26742160  7.39605271 22.00469122
   6.51960271  8.87478860 21.60092476
   3.25099073 10.35153195  8.77438183
   6.50198147  0.00000000  8.77438183
   6.50198147 10.35153195 12.02537257
   3.25099073  0.00000000 12.02537257
   3.25099073 10.35153195 15.27636330
   6.50198147  0.00000000 15.27636330
   6.60686195 10.34091052 18.42687329
   3.34097266 11.82945839 18.65415592
   3.27014181 10.35233493 22.00524410
   6.50383127 11.82988949 21.60552260
   3.25099073  1.47879028  8.77438183
   6.50198147  2.95758056  8.77438183
   6.50198147  1.47879028 12.02537257
   3.25099073  2.95758056 12.02537257
   3.25099073  1.47879028 15.27636330
   6.50198147  2.95758056 15.27636330
   6.60503067  1.48985666 18.42858654
   3.34062904  2.95848678 18.65397291
   3.26963500  1.47785100 22.00361854
   6.51931168  2.95413083 21.60763295
   3.25099073  4.43637084  8.77438183
   6.50198147  5.91516111  8.77438183
   6.50198147  4.43637084 12.02537257
   3.25099073  5.91516111 12.02537257
   3.25099073  4.43637084 15.27636330
   6.50198147  5.91516111 15.27636330
   6.60740641  4.45905780 18.49682038
   3.33694407  5.91445789 18.65695643
   3.26583609  4.43492207 22.00330767
   6.52511367  5.90685105 21.74005390
   9.75297220  8.87274167  7.50000000
   9.75297220  8.87274167 10.04876366
   1.27438183  7.39395139  8.77438183
  11.72958111  7.39395139  8.77438183
   0.00000000  8.87274167 10.75099073
   0.00000000  8.87274167 13.29975440
  11.02735404  7.39395139 12.02537257
   1.97660890  7.39395139 12.02537257
   9.75297220  8.87274167 14.00198147
   9.75297220  8.87274167 16.55074513
   1.27438183  7.39395139 15.27636330
  11.72958111  7.39395139 15.27636330
   0.01690989  8.87416340 17.27184902
   0.00628144  8.87076413 19.82975322
  11.07218792  7.39767652 18.53058512
   1.96571155  7.39558875 18.54899216
   9.80746114  8.88075552 20.51304953
   9.74861837  8.86137568 23.08363197
   1.23970060  7.39500378 21.95701009
  11.79441949  7.38492861 21.98688840
   9.75297220  0.00000000  7.50000000
   9.75297220  0.00000000 10.04876366
   1.27438183 10.35153195  8.77438183
  11.72958111 10.35153195  8.77438183
   0.00000000  0.00000000 10.75099073
   0.00000000  0.00000000 13.29975440
  11.02735404 10.35153195 12.02537257
   1.97660890 10.35153195 12.02537257
   9.75297220  0.00000000 14.00198147
   9.75297220  0.00000000 16.55074513
   1.27438183 10.35153195 15.27636330
  11.72958111 10.35153195 15.27636330
   0.01800812 11.82977992 17.27211204
   0.01269495 11.83009198 19.82878289
  11.07063952 10.35594882 18.53893885
   1.96600231 10.34844726 18.55041259
   9.77669014 11.82991324 20.52083481
   9.76465449 11.82865714 23.09273677
   1.23522719 10.34646862 21.95277987
  11.79349985 10.35113922 21.96934765
   9.75297220  2.95758056  7.50000000
   9.75297220  2.95758056 10.04876366
   1.27438183  1.47879028  8.77438183
  11.72958111  1.47879028  8.77438183
   0.00000000  2.95758056 10.75099073
   0.00000000  2.95758056 13.29975440
  11.02735404  1.47879028 12.02537257
   1.97660890  1.47879028 12.02537257
   9.75297220  2.95758056 14.00198147
   9.75297220  2.95758056 16.55074513
   1.27438183  1.47879028 15.27636330
  11.72958111  1.47879028 15.27636330
   0.01716531  2.95663161 17.27204035
   0.00847250  2.95855278 19.82949846
  11.07052992  1.47471528 18.53990262
   1.96597094  1.47911592 18.54731168
   9.80611246  2.95131187 20.51261300
   9.75045263  2.96637753 23.08092327
   1.23442827  1.48153544 21.95597722
  11.79312031  1.47851289 21.96603659
   9.75297220  5.91516111  7.50000000
   9.75297220  5.91516111 10.04876366
   1.27438183  4.43637084  8.77438183
  11.72958111  4.43637084  8.77438183
   0.00000000  5.91516111 10.75099073
   0.00000000  5.91516111 13.29975440
  11.02735404  4.43637084 12.02537257
   1.97660890  4.43637084 12.02537257
   9.75297220  5.91516111 14.00198147
   9.75297220  5.91516111 16.55074513
   1.27438183  4.43637084 15.27636330
  11.72958111  4.43637084 15.27636330
   0.01658032  5.91524436 17.27164219
   0.00765248  5.91602996 19.82761912
  11.07277773  4.43298220 18.53152675
   1.96538820  4.43677751 18.54975620
   9.83228527  5.91669307 20.50898176
   9.63005776  5.91275115 23.08647927
   1.23896415  4.43620594 21.95514397
  11.79502028  4.44436509 21.98629967
   3.25099073  8.87274167  7.50000000
   3.25099073  8.87274167 10.04876366
   7.77636330  7.39395139  8.77438183
   5.22759964  7.39395139  8.77438183
   6.50198147  8.87274167 10.75099073
   6.50198147  8.87274167 13.29975440
   4.52537257  7.39395139 12.02537257
   8.47859037  7.39395139 12.02537257
   3.25099073  8.87274167 14.00198147
   3.25099073  8.87274167 16.55074513
   7.77636330  7.39395139 15.27636330
   5.22759964  7.39395139 15.27636330
   6.52020392  8.85818479 17.26724845
   6.48798827  8.88827581 19.80138997
   4.56144574  7.39298136 18.54231614
   8.47603136  7.39515308 18.56359300
   3.28049216  8.86842174 20.51882529
   3.26573929  8.87232294 23.09296908
   7.77165409  7.44209159 21.81893786
   5.31110973  7.40146458 21.99077384
   3.25099073  0.00000000  7.50000000
   3.25099073  0.00000000 10.04876366
   7.77636330 10.35153195  8.77438183
   5.22759964 10.35153195  8.77438183
   6.50198147  0.00000000 10.75099073
   6.50198147  0.00000000 13.29975440
   4.52537257 10.35153195 12.02537257
   8.47859037 10.35153195 12.02537257
   3.25099073  0.00000000 14.00198147
   3.25099073  0.00000000 16.55074513
   7.77636330 10.35153195 15.27636330
   5.22759964 10.35153195 15.27636330
   6.51590291  0.00007884 17.25813711
[...]
      9.84319      5.91427     18.64934         0.000363      0.000409      0.000827
      9.78359      4.41795     21.97525        -0.000863     -0.004363      0.002005
      0.02307      5.91560     21.63443         0.001562     -0.001365      0.002124
      3.25099      7.39395      8.77438         0.002327     -0.000031     -3.375883
      6.50198      8.87274      8.77438        -0.000971      0.000302      2.814069
      6.50198      7.39395     12.02537        -0.004470      0.008974      0.561063
      3.25099      8.87274     12.02537         0.006807      0.000399     -0.708528
      3.25099      7.39395     15.27636         0.037191     -0.011044      0.680656
      6.50198      8.87274     15.27636        -0.023335     -0.038335     -0.626666
      6.60337      7.36946     18.49027        -0.006243      0.000113      0.003197
      3.33659      8.87135     18.65331         0.001740      0.000522      0.001080
      3.26918      7.39566     22.00581         0.002986     -0.002599      0.001802
      6.52282      8.87322     21.60077        -0.002102      0.001222      0.001907
      3.25099     10.35153      8.77438         0.002436      0.000213     -3.376013
      6.50198      0.00000      8.77438        -0.000946      0.000041      2.814192
      6.50198     10.35153     12.02537        -0.004670      0.000281      0.563762
      3.25099      0.00000     12.02537         0.007221     -0.000097     -0.708904
      3.25099     10.35153     15.27636         0.031377      0.004574      0.675918
      6.50198      0.00000     15.27636        -0.027801     -0.002529     -0.799020
      6.59647     10.34104     18.42812        -0.003056     -0.002014     -0.000632
      3.33161     -0.00028     18.65467        -0.000487      0.000119      0.001036
      3.27495     10.35195     22.00596        -0.002411      0.000188      0.001188
      6.50678     11.82923     21.60653        -0.001563      0.001438      0.005318
      3.25099      1.47879      8.77438         0.002421     -0.000016     -3.376085
      6.50198      2.95758      8.77438        -0.000989     -0.000290      2.813706
      6.50198      1.47879     12.02537        -0.004812     -0.002070      0.562539
      3.25099      2.95758     12.02537         0.006639     -0.000359     -0.708147
      3.25099      1.47879     15.27636         0.030456     -0.002028      0.677791
      6.50198      2.95758     15.27636        -0.023650      0.044029     -0.617665
      6.59662      1.48996     18.42978        -0.006068      0.002706     -0.001554
      3.33447      2.95760     18.65402        -0.001544      0.000836      0.002753
      3.27335      1.47762     22.00460        -0.003050      0.001648      0.001398
      6.52139      2.95409     21.60833        -0.001572     -0.000118     -0.001332
      3.25099      4.43637      8.77438         0.002312     -0.000129     -3.375958
      6.50198      5.91516      8.77438        -0.000994     -0.000018      2.813631
      6.50198      4.43637     12.02537        -0.004584     -0.007155      0.560281
      3.25099      5.91516     12.02537         0.006253      0.000104     -0.707269
      3.25099      4.43637     15.27636         0.038140      0.008556      0.683044
      6.50198      5.91516     15.27636        -0.020886     -0.003149     -0.648272
      6.59979      4.45928     18.49632         0.000494     -0.001394      0.002846
      3.33381      5.91585     18.65680         0.000010     -0.002259      0.001758
      3.26763      4.43469     22.00392         0.001246     -0.000261      0.002069
      6.52618      5.90633     21.73914        -0.002445     -0.001566      0.000469
      9.75297      8.87274      7.50000         0.000577     -0.000122      1.823615
      9.75297      8.87274     10.04876         0.000886     -0.000116      1.742473
      1.27438      7.39395      8.77438        -1.834126      0.000001     -0.762247
     11.72958      7.39395      8.77438         1.832613     -0.000007     -0.762100
      0.00000      8.87274     10.75099        -0.000607      0.000049     -1.350258
      0.00000      8.87274     13.29975         0.000436      0.000230     -0.110671
     11.02735      7.39395     12.02537         0.437738     -0.000127      0.051106
      1.97661      7.39395     12.02537        -0.442966      0.000092      0.049125
      9.75297      8.87274     14.00198         0.000543     -0.001501     -0.083655
      9.75297      8.87274     16.55075         0.014860      0.002066      0.047866
      1.27438      7.39395     15.27636        -0.492281      0.002417      0.085495
     11.72958      7.39395     15.27636         0.481844      0.000630      0.111272
      0.01289      8.87419     17.27226        -0.001672      0.000708      0.000275
      0.00290      8.87006     19.83036        -0.001513      0.001701      0.001286
     11.06974      7.39732     18.53039        -0.003575     -0.001592     -0.000760
      1.96239      7.39576     18.54938        -0.002875     -0.000991      0.003293
      9.81007      8.88006     20.51381        -0.002131      0.000230      0.000273
      9.74915      8.86028     23.08486        -0.001768     -0.000622     -0.002195
      1.24174      7.39429     21.95755        -0.002686      0.000607     -0.002842
     11.79714      7.38492     21.98908        -0.000542     -0.001313      0.001120
      9.75297      0.00000      7.50000         0.000578     -0.000006      1.823829
      9.75297      0.00000     10.04876         0.000975      0.000046      1.742386
      1.27438     10.35153      8.77438        -1.834143     -0.000026     -0.762213
     11.72958     10.35153      8.77438         1.832652     -0.000029     -0.762071
      0.00000      0.00000     10.75099        -0.000598      0.000038     -1.350177
      0.00000      0.00000     13.29975         0.000302     -0.000014     -0.109621
     11.02735     10.35153     12.02537         0.437815      0.000032      0.051116
      1.97661     10.35153     12.02537        -0.442959     -0.000003      0.049265
      9.75297      0.00000     14.00198         0.000601      0.001698     -0.083677
      9.75297      0.00000     16.55075         0.003220      0.000186      0.033129
      1.27438     10.35153     15.27636        -0.490023      0.001107      0.084195
     11.72958     10.35153     15.27636         0.481429     -0.000984      0.108292
      0.01236     11.82948     17.27261         0.002576      0.000718     -0.001697
      0.00643     -0.00032     19.82904        -0.000837      0.000476      0.003402
     11.06536     10.35667     18.54035         0.002616     -0.001364     -0.001565
      1.96092     10.34839     18.55160         0.000991      0.004742      0.000842
      9.77478     11.83020     20.52192         0.002442     -0.001355     -0.000509
      9.76479     11.82737     23.09354         0.000637     -0.000786     -0.002133
      1.23862     10.34668     21.94905        -0.002802     -0.002900      0.000030
     11.79615     10.35070     21.97247         0.001454      0.000605      0.001150
      9.75297      2.95758      7.50000         0.000586      0.000142      1.823839
      9.75297      2.95758     10.04876         0.000871      0.000138      1.742832
      1.27438      1.47879      8.77438        -1.834160      0.000019     -0.762187
     11.72958      1.47879      8.77438         1.832649      0.000029     -0.762041
      0.00000      2.95758     10.75099        -0.000606     -0.000037     -1.350174
      0.00000      2.95758     13.29975         0.000264     -0.000290     -0.110499
     11.02735      1.47879     12.02537         0.437762      0.000225      0.051150
      1.97661      1.47879     12.02537        -0.443023      0.000012      0.049241
      9.75297      2.95758     14.00198         0.000666      0.000957     -0.081782
      9.75297      2.95758     16.55075         0.012304      0.001010      0.054156
      1.27438      1.47879     15.27636        -0.491294     -0.001307      0.085474
     11.72958      1.47879     15.27636         0.480444      0.000479      0.109779
      0.01216      2.95614     17.27214        -0.000049      0.000450      0.001488
      0.00421      2.95937     19.83008        -0.001213     -0.001892     -0.001192
     11.06492      1.47414     18.54119         0.003737      0.000555     -0.001709
      1.95988      1.47922     18.54873         0.002881     -0.004726     -0.001359
      9.80719      2.95198     20.51384        -0.003405      0.001838     -0.001192
      9.75108      2.96480     23.08239        -0.001279      0.000411     -0.002129
      1.23739      1.48120     21.95276        -0.002579      0.001978      0.000081
     11.79561      1.47797     21.96961         0.001002     -0.002080      0.000367
      9.75297      5.91516      7.50000         0.000569      0.000026      1.823613
      9.75297      5.91516     10.04876         0.000869     -0.000019      1.742525
      1.27438      4.43637      8.77438        -1.834143      0.000044     -0.762223
     11.72958      4.43637      8.77438         1.832610      0.000044     -0.762066
      0.00000      5.91516     10.75099        -0.000623     -0.000024     -1.350254
      0.00000      5.91516     13.29975         0.000528     -0.000043     -0.111023
     11.02735      4.43637     12.02537         0.437658     -0.000089      0.051172
      1.97661      4.43637     12.02537        -0.443018     -0.000074      0.049132
      9.75297      5.91516     14.00198         0.002498     -0.001003     -0.083607
      9.75297      5.91516     16.55075         0.006920     -0.001110      0.038642
      1.27438      4.43637     15.27636        -0.493514     -0.003020      0.085573
     11.72958      4.43637     15.27636         0.480867     -0.000849      0.111067
      0.01448      5.91517     17.27171        -0.002217     -0.001637      0.001947
      0.00621      5.91498     19.82871        -0.000218      0.000327     -0.003804
     11.06895      4.43250     18.53077        -0.000758      0.002525      0.000043
      1.96234      4.43606     18.54811        -0.002749      0.000459      0.003554
      9.83415      5.91670     20.51001         0.001111      0.000149     -0.000599
      9.63452      5.91237     23.08822        -0.000767      0.000900     -0.000093
      1.24062      4.43567     21.95620        -0.002861     -0.000801     -0.003540
     11.79711      4.44351     21.98892         0.000119      0.002229      0.000415
      3.25099      8.87274      7.50000        -0.000551     -0.000081      1.822832
      3.25099      8.87274     10.04876        -0.001109     -0.000060      1.738659
      7.77636      7.39395      8.77438        -1.830451     -0.000182     -0.762909
      5.22760      7.39395      8.77438         1.831995     -0.000173     -0.762995
      6.50198      8.87274     10.75099         0.000620     -0.001296     -1.361827
      6.50198      8.87274     13.29975         0.003568     -0.002866     -0.157114
      4.52537      7.39395     12.02537         0.432976     -0.000330      0.048123
      8.47859      7.39395     12.02537        -0.427768     -0.000591      0.049774
      3.25099      8.87274     14.00198        -0.008162      0.001177     -0.104323
      3.25099      8.87274     16.55075        -0.003842      0.000911      0.035111
      7.77636      7.39395     15.27636        -0.436292     -0.024772      0.065125
      5.22760      7.39395     15.27636         0.471835     -0.025794      0.091262
      6.51680      8.85901     17.26761        -0.000601     -0.001951     -0.002553
      6.48365      8.88694     19.80164        -0.001551      0.002359     -0.003394
      4.55749      7.39283     18.54151         0.003510      0.000674     -0.000544
      8.47312      7.39521     18.56365         0.000761      0.000973      0.000782
      3.28142      8.86809     20.51950        -0.001708     -0.001890     -0.002044
      3.26737      8.87203     23.09360        -0.000123      0.000465     -0.000011
      7.77438      7.44138     21.81659         0.000570      0.001378     -0.001335
      5.31291      7.40163     21.99122         0.001847      0.000385      0.001576
      3.25099      0.00000      7.50000        -0.000559     -0.000053      1.823038
      3.25099      0.00000     10.04876        -0.001156     -0.000021      1.738629
      7.77636     10.35153      8.77438        -1.830409     -0.000112     -0.762883
      5.22760     10.35153      8.77438         1.831936     -0.000115     -0.762972
      6.50198      0.00000     10.75099         0.000680      0.000301     -1.362042
      6.50198      0.00000     13.29975         0.002838      0.000492     -0.157621
      4.52537     10.35153     12.02537         0.431630      0.000025      0.047954
      8.47859     10.35153     12.02537        -0.426600      0.000109      0.049684
      3.25099      0.00000     14.00198        -0.007572     -0.000068     -0.103943
      3.25099      0.00000     16.55075        -0.017227     -0.001933      0.019716
      7.77636     10.35153     15.27636        -0.436716      0.001891      0.080096
      5.22760     10.35153     15.27636         0.465334     -0.003022      0.096291
      6.51108      0.00001     17.25880         0.001842     -0.000238      0.001005
      6.50980     11.82930     19.80687        -0.000487     -0.002708     -0.003813
      4.55835     10.35407     18.53543         0.001422     -0.002809     -0.001459
      8.46771     10.34877     18.54679         0.006542      0.000903     -0.000330
      3.26680     11.82917     20.51630        -0.000350     -0.000808      0.001304
      3.25832     11.82983     23.09082         0.001234     -0.001141      0.001006
      7.74276     10.34910     21.93807         0.001723      0.000273      0.000142
      5.29246     10.36012     21.95304        -0.000133      0.002881      0.000577
      3.25099      2.95758      7.50000        -0.000559      0.000100      1.822998
      3.25099      2.95758     10.04876        -0.001091      0.000073      1.738608
      7.77636      1.47879      8.77438        -1.830419      0.000164     -0.762840
      5.22760      1.47879      8.77438         1.831967      0.000157     -0.762936
      6.50198      2.95758     10.75099         0.000637      0.001258     -1.361236
      6.50198      2.95758     13.29975         0.003428      0.002897     -0.151270
      4.52537      1.47879     12.02537         0.431933      0.000070      0.047996
      8.47859      1.47879     12.02537        -0.426808      0.000225      0.049812
      3.25099      2.95758     14.00198        -0.008320     -0.001702     -0.105518
      3.25099      2.95758     16.55075        -0.003576      0.000598      0.033092
      7.77636      1.47879     15.27636        -0.438259      0.002786      0.083656
      5.22760      1.47879     15.27636         0.467679      0.006272      0.098572
      6.51603      2.97277     17.26996        -0.000751      0.000597     -0.002660
      6.49214      2.93789     19.80611        -0.000338     -0.001639     -0.001733
      4.55845      1.47626     18.53730         0.002369      0.001978     -0.001704
      8.46842      1.48054     18.54487         0.004460     -0.001592      0.001603
      3.26682      2.95583     20.51605        -0.000755      0.001130     -0.001015
      3.27072      2.95852     23.08933        -0.001432     -0.001209     -0.001156
      7.74339      1.47489     21.93725         0.000613     -0.001328      0.002662
      5.29137      1.46894     21.94853         0.000425     -0.002820      0.000752
      3.25099      5.91516      7.50000        -0.000546      0.000070      1.822778
      3.25099      5.91516     10.04876        -0.001075      0.000037      1.738413
      7.77636      4.43637      8.77438        -1.830461      0.000167     -0.762866
      5.22760      4.43637      8.77438         1.832021      0.000170     -0.762996
      6.50198      5.91516     10.75099         0.000631     -0.000241     -1.360294
      6.50198      5.91516     13.29975         0.003441     -0.000694     -0.121127
      4.52537      4.43637     12.02537         0.433268      0.000264      0.048149
      8.47859      4.43637     12.02537        -0.427953      0.000296      0.049866
      3.25099      5.91516     14.00198        -0.009317      0.000401     -0.106764
      3.25099      5.91516     16.55075        -0.003254     -0.002559      0.034272
      7.77636      4.43637     15.27636        -0.435215      0.019149      0.062138
      5.22760      4.43637     15.27636         0.471685      0.021537      0.088324
      6.51871      5.91261     17.27873        -0.002160      0.001693     -0.005485
      6.50090      5.92012     19.84642        -0.000883      0.001117      0.000859
      4.55840      4.43624     18.54825         0.000944      0.000195     -0.000274
      8.47198      4.43642     18.56596         0.002225     -0.001080      0.001376
      3.26923      5.91952     20.51967        -0.001881      0.001397     -0.002048
      3.28240      5.91386     23.09093        -0.000280      0.000903     -0.002003
      7.77234      4.39519     21.81421        -0.000499     -0.000377      0.002998
      5.29885      4.42396     21.93317         0.002626      0.000541      0.003248
 -----------------------------------------------------------------------------------
    total drift:                               -0.005799     -0.002181     -0.039804


--------------------------------------------------------------------------------------------------------



  FREE ENERGIE OF THE ION-ELECTRON SYSTEM (eV)
  ---------------------------------------------------
  free  energy   TOTEN  =     -2141.06464004 eV

  energy  without entropy=    -2141.06464004  energy(sigma->0) =    -2141.06464004

 d Force = 0.4315588E-04[ 0.232E-04, 0.631E-04]  d Energy = 0.4212708E-04 0.103E-05
 d Force = 0.7113776E+01[ 0.711E+01, 0.711E+01]  d Ewald  = 0.7113775E+01 0.583E-06


--------------------------------------------------------------------------------------------------------


    POTLOK:  cpu time      0.9041: real time      0.9056


--------------------------------------------------------------------------------------------------------


 Conjugate gradient step on ions:
 trial-energy change:   -0.000042  1 .order   -0.000043   -0.000063   -0.000023
  (g-gl).g = 0.189E-03      g.g   = 0.190E-03  gl.gl    = 0.182E-03
 g(Force)  = 0.190E-03   g(Stress)= 0.000E+00 ortho     = 0.150E-06
 gamma     =   1.03824
 trial     =   0.33280
 opt step  =   0.60066  (harmonic =   0.52595) maximal distance =0.00110551
 next E    = -2141.064649   (d E  =  -0.00005)


--------------------------------------------------------------------------------------------------------


  
 reached required accuracy - stopping structural energy minimisation
     LOOP+:  cpu time    402.8289: real time    403.1080
    4ORBIT:  cpu time      0.0000: real time      0.0000

 total amount of memory used by VASP MPI-rank0   197395. kBytes
=======================================================================

   base      :      30000. kBytes
   nonl-proj :     122056. kBytes
   fftplans  :      12887. kBytes
   grid      :      20395. kBytes
   one-center:        482. kBytes
   wavefun   :      11575. kBytes

  
  
 General timing and accounting informations for this job:
 ========================================================
  
                  Total CPU time used (sec):    11858.579
                            User time (sec):    11844.625
                          System time (sec):       13.954
                         Elapsed time (sec):    11897.143
  
                   Maximum memory used (kb):      404388.
                   Average memory used (kb):          N/A
  
                          Minor page faults:       712326
                          Major page faults:         1453
                 Voluntary context switches:        23635
