 vasp.6.3.0 20Jan22 (build Apr  1 2022 16:44:48) gamma-only                      
 executed on        HPECrayEX_GCC date 2023.01.23  23:20:16
 running  512 mpi-ranks, with    1 threads/rank
 distrk:  each k-point on  512 cores,    1 groups
 distr:  one band on NCORE=   8 cores,   64 groups


--------------------------------------------------------------------------------------------------------


 INCAR:
   SYSTEM = MgO-rocksalt
   ISMEAR = 0
   SIGMA = 0.05
   EDIFF = 1E-8
   ALGO = ALL
   ISTART = 0
   IBRION = 5
   POTIM = 0.01
   NFREE = 2
   ISYM = 0
   DIPOL = 0.5 0.5 0.5
   IDIPOL = 4
   LDIPOL = .TRUE.
   GGA = MK
   LUSE_VDW = .TRUE.
   PARAM1 = 0.1234
   PARAM2 = 0.711357
   ZAB_VDW = -1.8867
   AGGAC = 0.0
   ENCUT = 600
   PREC = Accurate
   LASPH = .TRUE.
   LREAL = .FALSE.
   ISPIN = 1
   NELM = 200
   NELMIN = 8
   NCORE = 8
   KPAR = 1
   LWAVE = .FALSE.
   LCHARG = .FALSE.

 POTCAR:    PAW_PBE C 08Apr2002                   
 POTCAR:    PAW_PBE O 08Apr2002                   
 POTCAR:    PAW_PBE H 15Jun2001                   
 -----------------------------------------------------------------------------
|                                                                             |
|               ----> ADVICE to this user running VASP <----                  |
|                                                                             |
|     You have switched on vdW-DFT.                                           |
|     This routine was written and supplied by Jiri Klimes. We recommend      |
|     that you carefully read and cite the following publications:            |
|       J. Klimes, D.R. Bowler, A. Michelides                                 |
|          J. Phys.: Cond Matt. 22 022201 (2010)                              |
|       J. Klimes, D.R. Bowler, A. Michelides                                 |
|          Phys. Rev. B. 83, 195131 (2011)                                    |
|     and references therein.                                                 |
|                                                                             |
 -----------------------------------------------------------------------------

 POTCAR:    PAW_PBE C 08Apr2002                   
   SHA256 =  253f7b50bb8d59471dbedb8285d89021f4a42ed1a2c5d38a03a736e69125dd95 C/POTCAR              
   COPYR  = (c) Copyright 08Apr2002 Georg Kresse                                                    
   COPYR  = This file is part of the software VASP. Any use, copying, and all other rights are regul
   COPYR  = If you do not have a valid VASP license, you may not use, copy or distribute this file. 
   VRHFIN =C: s2p2                                                                                  
   LEXCH  = PE                                                                                      
   EATOM  =   147.1560 eV,   10.8157 Ry                                                             
                                                                                                    
   TITEL  = PAW_PBE C 08Apr2002                                                                     
   LULTRA =        F    use ultrasoft PP ?                                                          
   IUNSCR =        1    unscreen: 0-lin 1-nonlin 2-no                                               
   RPACOR =    1.200    partial core radius                                                         
   POMASS =   12.011; ZVAL   =    4.000    mass and valenz                                          
   RCORE  =    1.500    outmost cutoff radius                                                       
   RWIGS  =    1.630; RWIGS  =    0.863    wigner-seitz radius (au A)                               
   ENMAX  =  400.000; ENMIN  =  300.000 eV                                                          
   ICORE  =        2    local potential                                                             
   LCOR   =        T    correct aug charges                                                         
   LPAW   =        T    paw PP                                                                      
   EAUG   =  644.873                                                                                
   DEXC   =    0.000                                                                                
   RMAX   =    1.529    core radius for proj-oper                                                   
   RAUG   =    1.300    factor for augmentation sphere                                              
   RDEP   =    1.501    radius for radial grids                                                     
   RDEPT  =    1.300    core radius for aug-charge                                                  
                                                                                                    
   Atomic configuration                                                                             
    4 entries                                                                                       
     n  l   j            E        occ.                                                              
     1  0  0.50      -273.3789   2.0000                                                             
     2  0  0.50       -13.7508   2.0000                                                             
     2  1  0.50        -5.2854   2.0000                                                             
     3  2  1.50        -5.4423   0.0000                                                             
   Description                                                                                      
     l       E           TYP  RCUT    TYP  RCUT                                                     
     0    -13.7508458     23  1.200                                                                 
     0     -8.2022199     23  1.200                                                                 
     1     -5.2854383     23  1.500                                                                 
     1     34.0145650     23  1.500                                                                 
     2     -5.4423304      7  1.500                                                                 
  local pseudopotential read in
  partial core-charges read in
  partial kinetic energy density read in
  atomic valenz-charges read in
  non local Contribution for L=           0  read in
    real space projection operators read in
  non local Contribution for L=           0  read in
    real space projection operators read in
  non local Contribution for L=           1  read in
    real space projection operators read in
  non local Contribution for L=           1  read in
    real space projection operators read in
    PAW grid and wavefunctions read in

   number of l-projection  operators is LMAX  =           4
   number of lm-projection operators is LMMAX =           8

 POTCAR:    PAW_PBE O 08Apr2002                   
   SHA256 =  818f92134a0a090dccd8ba1447fa70422a3b330e708bb4f08108d8ae51209ddf O/POTCAR              
   COPYR  = (c) Copyright 08Apr2002 Georg Kresse                                                    
   COPYR  = This file is part of the software VASP. Any use, copying, and all other rights are regul
   COPYR  = If you do not have a valid VASP license, you may not use, copy or distribute this file. 
   VRHFIN =O: s2p4                                                                                  
   LEXCH  = PE                                                                                      
   EATOM  =   432.3788 eV,   31.7789 Ry                                                             
                                                                                                    
   TITEL  = PAW_PBE O 08Apr2002                                                                     
   LULTRA =        F    use ultrasoft PP ?                                                          
   IUNSCR =        1    unscreen: 0-lin 1-nonlin 2-no                                               
   RPACOR =    1.200    partial core radius                                                         
   POMASS =   16.000; ZVAL   =    6.000    mass and valenz                                          
   RCORE  =    1.520    outmost cutoff radius                                                       
   RWIGS  =    1.550; RWIGS  =    0.820    wigner-seitz radius (au A)                               
   ENMAX  =  400.000; ENMIN  =  300.000 eV                                                          
   ICORE  =        2    local potential                                                             
   LCOR   =        T    correct aug charges                                                         
   LPAW   =        T    paw PP                                                                      
   EAUG   =  605.392                                                                                
   DEXC   =    0.000                                                                                
   RMAX   =    1.553    core radius for proj-oper                                                   
   RAUG   =    1.300    factor for augmentation sphere                                              
   RDEP   =    1.550    radius for radial grids                                                     
   RDEPT  =    1.329    core radius for aug-charge                                                  
                                                                                                    
   Atomic configuration                                                                             
    4 entries                                                                                       
     n  l   j            E        occ.                                                              
     1  0  0.50      -514.6923   2.0000                                                             
     2  0  0.50       -23.9615   2.0000                                                             
     2  1  0.50        -9.0305   4.0000                                                             
     3  2  1.50        -9.5241   0.0000                                                             
   Description                                                                                      
     l       E           TYP  RCUT    TYP  RCUT                                                     
     0    -23.9615318     23  1.200                                                                 
     0     -9.5240782     23  1.200                                                                 
     1     -9.0304911     23  1.520                                                                 
     1      8.1634956     23  1.520                                                                 
     2     -9.5240782      7  1.500                                                                 
  local pseudopotential read in
  partial core-charges read in
  partial kinetic energy density read in
  kinetic energy density of atom read in
  atomic valenz-charges read in
  non local Contribution for L=           0  read in
    real space projection operators read in
  non local Contribution for L=           0  read in
    real space projection operators read in
  non local Contribution for L=           1  read in
    real space projection operators read in
  non local Contribution for L=           1  read in
    real space projection operators read in
    PAW grid and wavefunctions read in

   number of l-projection  operators is LMAX  =           4
   number of lm-projection operators is LMMAX =           8

 POTCAR:    PAW_PBE H 15Jun2001                   
   SHA256 =  030f79b5d3ab3cf0e668861823c8fb652ff669f3e15e46930bd03bfd63a607b6 H/POTCAR              
   COPYR  = (c) Copyright 15Jun2001 Georg Kresse                                                    
   COPYR  = This file is part of the software VASP. Any use, copying, and all other rights are regul
   COPYR  = If you do not have a valid VASP license, you may not use, copy or distribute this file. 
   VRHFIN =H: ultrasoft test                                                                        
   LEXCH  = PE                                                                                      
   EATOM  =    12.4884 eV,    0.9179 Ry                                                             
                                                                                                    
   TITEL  = PAW_PBE H 15Jun2001                                                                     
   LULTRA =        F    use ultrasoft PP ?                                                          
   IUNSCR =        0    unscreen: 0-lin 1-nonlin 2-no                                               
   RPACOR =    0.000    partial core radius                                                         
   POMASS =    1.000; ZVAL   =    1.000    mass and valenz                                          
   RCORE  =    1.100    outmost cutoff radius                                                       
   RWIGS  =    0.700; RWIGS  =    0.370    wigner-seitz radius (au A)                               
   ENMAX  =  250.000; ENMIN  =  200.000 eV                                                          
   RCLOC  =    0.701    cutoff for local pot                                                        
   LCOR   =        T    correct aug charges                                                         
   LPAW   =        T    paw PP                                                                      
   EAUG   =  400.000                                                                                
   RMAX   =    1.123    core radius for proj-oper                                                   
   RAUG   =    1.200    factor for augmentation sphere                                              
   RDEP   =    1.112    radius for radial grids                                                     
   RDEPT  =    0.926    core radius for aug-charge                                                  
                                                                                                    
   Atomic configuration                                                                             
    2 entries                                                                                       
     n  l   j            E        occ.                                                              
     1  0  0.50        -6.4927   1.0000                                                             
     2  1  0.50        -3.4015   0.0000                                                             
   Description                                                                                      
     l       E           TYP  RCUT    TYP  RCUT                                                     
     0     -6.4927494     23  1.100                                                                 
     0      6.8029130     23  1.100                                                                 
     1     -4.0817478     23  1.100                                                                 
  local pseudopotential read in
  atomic valenz-charges read in
  non local Contribution for L=           0  read in
    real space projection operators read in
  non local Contribution for L=           0  read in
    real space projection operators read in
  non local Contribution for L=           1  read in
    real space projection operators read in
    PAW grid and wavefunctions read in

   number of l-projection  operators is LMAX  =           3
   number of lm-projection operators is LMMAX =           5

 -----------------------------------------------------------------------------
|                                                                             |
|               ----> ADVICE to this user running VASP <----                  |
|                                                                             |
|     You enforced a specific xc type in the INCAR file but a different       |
|     type was found in the POTCAR file.                                      |
|     I HOPE YOU KNOW WHAT YOU ARE DOING!                                     |
|                                                                             |
 -----------------------------------------------------------------------------

  PAW_PBE C 08Apr2002                   :
 energy of atom  1       EATOM= -147.1560
 kinetic energy error for atom=    0.0057 (will be added to EATOM!!)
  PAW_PBE O 08Apr2002                   :
 energy of atom  2       EATOM= -432.3788
 kinetic energy error for atom=    0.0168 (will be added to EATOM!!)
  PAW_PBE H 15Jun2001                   :
 energy of atom  3       EATOM=  -12.4884
 kinetic energy error for atom=    0.0004 (will be added to EATOM!!)


 POSCAR:  C  O  H
  positions in direct lattice
  No initial velocities read in
 exchange correlation table for  LEXCH =       43
   RHO(1)=    0.500       N(1)  =     2000
   RHO(2)=  100.500       N(2)  =     4000



--------------------------------------------------------------------------------------------------------


 ion  position               nearest neighbor table
   1  0.503  0.530  0.500-   3 1.10   5 1.10   6 1.10   2 1.43
   2  0.503  0.465  0.500-   4 0.97   1 1.43
   3  0.455  0.543  0.500-   1 1.10
   4  0.545  0.451  0.500-   2 0.97
   5  0.525  0.548  0.541-   1 1.10
   6  0.525  0.548  0.459-   1 1.10


IMPORTANT INFORMATION: All symmetrisations will be switched off!
NOSYMM: (Re-)initialisation of all symmetry stuff for point group C_1.


----------------------------------------------------------------------------------------

                                     Primitive cell                                     

  volume of cell :   10591.2532

  direct lattice vectors                    reciprocal lattice vectors
    21.971529000  0.000000000  0.000000000     0.045513446  0.000000000  0.000000000
     0.000000000 22.128834000  0.000000000     0.000000000  0.045189909  0.000000000
     0.000000000  0.000000000 21.783544000     0.000000000  0.000000000  0.045906213

  length of vectors
    21.971529000 22.128834000 21.783544000     0.045513446  0.045189909  0.045906213

  position of ions in fractional coordinates (direct lattice)
     0.502674358  0.529508455  0.499999999
     0.503013427  0.464830345  0.499999997
     0.454734440  0.543382104  0.500000001
     0.545050267  0.451033794  0.500000001
     0.524775494  0.548375985  0.541278955
     0.524775495  0.548375991  0.458721046

  ion indices of the primitive-cell ions
   primitive index   ion index
                 1           1
                 2           2
                 3           3
                 4           4
                 5           5
                 6           6

----------------------------------------------------------------------------------------



 KPOINTS: pymatgen v2020.8.13 with grid density = 

Automatic generation of k-mesh.
 Grid dimensions read from file:
 generate k-points for:    1    1    1

 Generating k-lattice:

  Cartesian coordinates                     Fractional coordinates (reciprocal lattice)
     0.045513446  0.000000000  0.000000000     1.000000000  0.000000000  0.000000000
     0.000000000  0.045189909  0.000000000     0.000000000  1.000000000  0.000000000
     0.000000000  0.000000000  0.045906213     0.000000000  0.000000000  1.000000000

  Length of vectors
     0.045513446  0.045189909  0.045906213

  Shift w.r.t. Gamma in fractional coordinates (k-lattice)
     0.000000000  0.000000000  0.000000000

 
 Subroutine IBZKPT returns following result:
 ===========================================
 
 Found      1 irreducible k-points:
 
 Following reciprocal coordinates:
            Coordinates               Weight
  0.000000  0.000000  0.000000      1.000000
 
 Following cartesian coordinates:
            Coordinates               Weight
  0.000000  0.000000  0.000000      1.000000
 
 
 Subroutine IBZKPT_HF returns following result:
 ==============================================
 
 Found      1 k-points in 1st BZ
 the following      1 k-points will be used (e.g. in the exchange kernel)
 Following reciprocal coordinates:   # in IRBZ
  0.000000  0.000000  0.000000    1.00000000   1 t-inv F


--------------------------------------------------------------------------------------------------------




 Dimension of arrays:
   k-points           NKPTS =      1   k-points in BZ     NKDIM =      1   number of bands    NBANDS=     64
   number of dos      NEDOS =    301   number of ions     NIONS =      6
   non local maximal  LDIM  =      4   non local SUM 2l+1 LMDIM =      8
   total plane-waves  NPLWV = ******
   max r-space proj   IRMAX =      1   max aug-charges    IRDMAX=   7343
   dimension x,y,z NGX =   180 NGY =  180 NGZ =  180
   dimension x,y,z NGXF=   360 NGYF=  360 NGZF=  360
   support grid    NGXF=   360 NGYF=  360 NGZF=  360
   ions per type =               1   1   4
   NGX,Y,Z   is equivalent  to a cutoff of  13.62, 13.52, 13.74 a.u.
   NGXF,Y,Z  is equivalent  to a cutoff of  27.24, 27.05, 27.47 a.u.

 SYSTEM =  MgO-rocksalt                            
 POSCAR =   C  O  H                                

--------------------------------------------------------------------------------------------------------


  energy-cutoff  :      600.00
  volume of cell :    10591.25
      direct lattice vectors                 reciprocal lattice vectors
    21.971529000  0.000000000  0.000000000     0.045513446  0.000000000  0.000000000
     0.000000000 22.128834000  0.000000000     0.000000000  0.045189909  0.000000000
     0.000000000  0.000000000 21.783544000     0.000000000  0.000000000  0.045906213

  length of vectors
    21.971529000 22.128834000 21.783544000     0.045513446  0.045189909  0.045906213



 k-points in units of 2pi/SCALE and weight: pymatgen v2020.8.13 with grid density = 
   0.00000000  0.00000000  0.00000000       1.000

 k-points in reciprocal lattice and weights: pymatgen v2020.8.13 with grid density = 
   0.00000000  0.00000000  0.00000000       1.000

 position of ions in fractional coordinates (direct lattice) 
   0.50267436  0.52950845  0.50000000
   0.50301343  0.46483035  0.50000000
   0.45473444  0.54338210  0.50000000
   0.54505027  0.45103379  0.50000000
   0.52477549  0.54837599  0.54127895
   0.52477549  0.54837599  0.45872105

 position of ions in cartesian coordinates  (Angst):
  11.04452424 11.71740470 10.89177198
  11.05197411 10.28615355 10.89177194
   9.99121094 12.02441237 10.89177202
  11.97558774  9.98085196 10.89177203
  11.53011998 12.13492115 11.79097393
  11.53012000 12.13492127  9.99257010



--------------------------------------------------------------------------------------------------------


--------------------------------------- Iteration      FINAL  ---------------------------------------


--------------------OUTCAR has been truncated-------------------------


--------------------OUTCAR has been truncated-------------------------


--------------------OUTCAR has been truncated-------------------------


--------------------OUTCAR has been truncated-------------------------


--------------------OUTCAR has been truncated-------------------------


--------------------OUTCAR has been truncated-------------------------


--------------------OUTCAR has been truncated-------------------------


--------------------OUTCAR has been truncated-------------------------


--------------------OUTCAR has been truncated-------------------------


--------------------OUTCAR has been truncated-------------------------


  FORCE on cell =-STRESS in cart. coord.  units (eV):
  Direction    XX          YY          ZZ          XY          YZ          ZX
  --------------------------------------------------------------------------------------
  Alpha Z     0.07064     0.07064     0.07064
  Ewald     124.56822   336.43877    38.64317   -43.10551     0.08769     0.17962
  Hartree   296.91673   451.30466   281.62751   -12.86317    -0.10971    -0.04257
  E(xc)     -57.13250   -57.41625   -57.47636    -0.09632     0.00044     0.00018
  Local    -554.55813  -922.06542  -478.59231    47.48880     0.09647    -0.04955
  n-local   -41.71962   -38.10653   -41.89776    -0.36042    -0.00793    -0.01060
  augment     6.44934     6.17357     8.22189     0.54074    -0.00085    -0.00086
  Kinetic   225.27630   223.45901   249.10895     8.37977     0.00219     0.01618
  Fock        0.00000     0.00000     0.00000     0.00000     0.00000     0.00000
  -------------------------------------------------------------------------------------
  Total      -0.12903    -0.14154    -0.29427    -0.01611     0.06830     0.09240
  in kB      -0.01952    -0.02141    -0.04451    -0.00244     0.01033     0.01398
  external pressure =       -0.03 kB  Pullay stress =        0.00 kB


 VOLUME and BASIS-vectors are now :
 -----------------------------------------------------------------------------
  energy-cutoff  :      600.00
  volume of cell :    10591.25
      direct lattice vectors                 reciprocal lattice vectors
    21.971529000  0.000000000  0.000000000     0.045513446  0.000000000  0.000000000
     0.000000000 22.128834000  0.000000000     0.000000000  0.045189909  0.000000000
     0.000000000  0.000000000 21.783544000     0.000000000  0.000000000  0.045906213

  length of vectors
    21.971529000 22.128834000 21.783544000     0.045513446  0.045189909  0.045906213


 FORCES acting on ions:
    Electron-Ion                     Ewald-Force                    Non-Local-Force
 -----------------------------------------------------------------------------------------------
   0.287E+01 -.127E+03 0.315E+00   -.306E+01 0.133E+03 -.423E+00   0.274E+00 -.565E+01 -.926E-01
   0.445E+02 0.166E+03 -.587E-01   -.837E+02 -.191E+03 0.409E-01   0.392E+02 0.255E+02 0.250E-01
   0.601E+02 -.302E+02 -.670E-02   -.657E+02 0.318E+02 0.581E-02   0.555E+01 -.163E+01 0.131E-02
   -.880E+02 0.446E+02 -.589E-02   0.958E+02 -.475E+02 0.601E-02   -.778E+01 0.292E+01 0.364E-03
   -.261E+02 -.352E+02 -.498E+02   0.286E+02 0.374E+02 0.543E+02   -.241E+01 -.214E+01 -.457E+01
   -.258E+02 -.349E+02 0.497E+02   0.281E+02 0.369E+02 -.540E+02   -.234E+01 -.208E+01 0.449E+01
 -----------------------------------------------------------------------------------------------
   -.325E+02 -.169E+02 0.149E+00   -.249E-13 0.000E+00 0.000E+00   0.325E+02 0.169E+02 -.149E+00


 POSITION                                       TOTAL-FORCE (eV/Angst)
 -----------------------------------------------------------------------------------
     11.04452     11.71740     10.89177         0.083357      0.054057     -0.198583
     11.05197     10.28615     10.89177        -0.002523      0.012267      0.007201
      9.99121     12.02441     10.89177        -0.006276     -0.008641      0.000429
     11.97559      9.98085     10.89177        -0.004739     -0.000653      0.000499
     11.53012     12.13492     11.79097         0.016075      0.009177     -0.019470
     11.53012     12.13492      9.98257        -0.085895     -0.066206      0.209924
 -----------------------------------------------------------------------------------
    total drift:                                0.000420      0.000251     -0.000037


--------------------------------------------------------------------------------------------------------



  FREE ENERGIE OF THE ION-ELECTRON SYSTEM (eV)
  ---------------------------------------------------
  free  energy   TOTEN  =       -27.32166860 eV

  energy  without entropy=      -27.32166860  energy(sigma->0) =      -27.32166860

 d Force = 0.8763503E-04[-0.420E-02, 0.437E-02]  d Energy = 0.3173226E-04 0.559E-04
 d Force = 0.1087561E+01[ 0.108E+01, 0.110E+01]  d Ewald  = 0.1087546E+01 0.145E-04


--------------------------------------------------------------------------------------------------------


    POTLOK:  cpu time      1.8523: real time      1.8525


--------------------------------------------------------------------------------------------------------


 Finite differences progress:
  Degree of freedom:  18/ 18
  Displacement:        2/  2
  Total:              36/ 36

 SECOND DERIVATIVES (NOT SYMMETRIZED)
 ------------------------------------
               1X          1Y          1Z          2X          2Y          2Z          3X          3Y          3Z          4X          4Y          4Z          5X          5Y          5Z          6X          6Y          6Z 
  1X   -54.673906    0.860498    0.000050    8.215091    2.092441   -0.000007   27.649948   -4.903205   -0.000011    0.138493   -4.116031   -0.000011    9.335187    3.033148    8.487943    9.335187    3.033149   -8.487964
  1Y     0.848715  -41.003566   -0.000054   -2.292437   20.666334    0.000016   -6.073574    5.360378    0.000010    0.887864    1.935589    0.000010    3.314715    6.520631    5.988867    3.314716    6.520633   -5.988849
  1Z     0.000383    0.000318  -50.519828   -0.000793   -0.000240    5.351593    0.001379   -0.000052    4.530558   -0.002224    0.001278    0.133516    8.380123    5.794034   20.251680   -8.378868   -5.795337   20.252481
  2X     8.209487   -2.297058   -0.008172  -50.597804   12.776257    0.002597   -0.287133   -3.593592    0.002045   43.604259   -9.589151    0.000851   -0.464583    1.352241   -0.301611   -0.464227    1.351303    0.304290
  2Y     2.095430   20.672657    0.000017   12.752999  -36.236732   -0.000006   -0.404477    2.143927   -0.000003  -14.691027    7.299417   -0.000004    0.123537    3.060365    0.444063    0.123537    3.060366   -0.444067
  2Z    -0.000231   -0.000781    5.338439   -0.000815    0.000442   -3.934196   -0.000072    0.000107   -0.160732    0.001044    0.000475    0.226736   -0.202014    2.565505   -0.735093    0.202088   -2.565748   -0.735155
  3X    27.648277   -6.080888   -0.005115   -0.277279   -0.406008    0.002654  -29.434642    6.780918   -0.000411   -0.250295    0.126884    0.002690    1.157249   -0.210799   -0.061979    1.156689   -0.210107    0.062161
  3Y    -4.893155    5.360199   -0.000002   -3.593050    2.139449   -0.000000    6.772948   -7.416360   -0.000001   -0.084457    0.718321    0.000001    0.898857   -0.400805   -0.090665    0.898857   -0.400804    0.090667
  3Z     0.003326    0.000693    4.531030   -0.000667   -0.000591   -0.156246   -0.000145   -0.000772   -4.240025   -0.002081    0.000443   -0.030547    2.444685   -0.591205   -0.052651   -2.445119    0.591433   -0.051561
  4X     0.139876    0.889038   -0.000301   43.614710  -14.711036   -0.000071   -0.248841   -0.083989    0.000418  -43.388730   13.601937    0.000340   -0.057624    0.151957   -0.016813   -0.059392    0.152091    0.016427
  4Y    -4.111635    1.935932   -0.000001   -9.579815    7.300043   -0.000002    0.128397    0.717142    0.000001   13.584191   -9.710660    0.000001   -0.010569   -0.121228    0.087111   -0.010569   -0.121228   -0.087110
  4Z     0.000357   -0.002986    0.134817   -0.000221    0.002553    0.239409    0.000365   -0.000006   -0.031777   -0.001021   -0.000055   -0.242103   -0.126924    0.019395   -0.050253    0.127444   -0.018901   -0.050093
  5X     9.334280    3.317535    8.371904   -0.453138    0.123467   -0.203705    1.156393    0.899295    2.446782   -0.058849   -0.012683   -0.128762   -9.319497   -3.897700   -9.297057   -0.659188   -0.429914   -1.189162
  5Y     3.031618    6.520501    5.784627    1.352508    3.057757    2.564580   -0.209670   -0.400929   -0.590286    0.152534   -0.120302    0.020847   -3.897263   -8.494389   -7.106822   -0.429727   -0.562637   -0.672946
  5Z     8.494448    5.995297   20.252549   -0.300805    0.445825   -0.727704   -0.063024   -0.090484   -0.051796   -0.017029    0.087484   -0.049131   -9.304438   -7.112424  -21.428129    1.190849    0.674302    2.004211
  6X     9.336437    3.311213   -8.373452   -0.450431    0.129212    0.201579    1.157200    0.898656   -2.445021   -0.064205   -0.010404    0.128126   -0.660328   -0.430918    1.189350   -9.318672   -3.897758    9.299418
  6Y     3.029708    6.522241   -5.780384    1.352468    3.056876   -2.563689   -0.209751   -0.400809    0.589796    0.153954   -0.120919   -0.021959   -0.429852   -0.562850    0.671866   -3.896526   -8.494540    7.104369
  6Z    -8.495270   -5.987631   20.254256    0.300740   -0.450204   -0.728132    0.060204    0.089974   -0.052016    0.020787   -0.090886   -0.049328   -1.190825   -0.674807    2.005808    9.304364    7.113554  -21.430588


 Eigenvectors and eigenvalues of the dynamical matrix
 ----------------------------------------------------


   1 f  =  111.787091 THz   702.379009 2PiTHz 3728.815996 cm-1   462.314054 meV
             X         Y         Z           dx          dy          dz
     11.044524 11.717405 10.891772     0.009047    0.003869   -0.000027  
     11.051974 10.286154 10.891772     0.225514   -0.084797    0.000002  
      9.991211 12.024412 10.891772    -0.015368    0.001310   -0.000024  
     11.975588  9.980852 10.891772    -0.916802    0.317910   -0.000005  
     11.530120 12.134921 11.790974    -0.000661    0.003298   -0.001105  
     11.530120 12.134921  9.992570    -0.000782    0.003285    0.001219  

   2 f  =   91.026711 THz   571.937695 2PiTHz 3036.324262 cm-1   376.456060 meV
             X         Y         Z           dx          dy          dz
     11.044524 11.717405 10.891772    -0.293323    0.036868   -0.000037  
     11.051974 10.286154 10.891772     0.006502    0.000618   -0.000008  
      9.991211 12.024412 10.891772     0.890946   -0.246706    0.000006  
     11.975588  9.980852 10.891772    -0.017443   -0.002654   -0.000038  
     11.530120 12.134921 11.790974     0.058631    0.059591    0.147827  
     11.530120 12.134921  9.992570     0.058527    0.059497   -0.147623  

   3 f  =   88.699824 THz   557.317430 2PiTHz 2958.707648 cm-1   366.832831 meV
             X         Y         Z           dx          dy          dz
     11.044524 11.717405 10.891772     0.000146    0.000091   -0.308788  
     11.051974 10.286154 10.891772    -0.000050    0.000042    0.001278  
      9.991211 12.024412 10.891772     0.000101   -0.000016   -0.028113  
     11.975588  9.980852 10.891772     0.000104   -0.000008    0.004237  
     11.530120 12.134921 11.790974     0.312497    0.239722    0.543958  
     11.530120 12.134921  9.992570    -0.313065   -0.240141    0.545117  

   4 f  =   87.315479 THz   548.619332 2PiTHz 2912.530861 cm-1   361.107641 meV
             X         Y         Z           dx          dy          dz
     11.044524 11.717405 10.891772     0.094674    0.140295    0.000307  
     11.051974 10.286154 10.891772    -0.001385    0.011150   -0.000004  
      9.991211 12.024412 10.891772     0.260569   -0.068368    0.000024  
     11.975588  9.980852 10.891772    -0.002563    0.004485   -0.000018  
     11.530120 12.134921 11.790974    -0.290653   -0.233743   -0.557731  
     11.530120 12.134921  9.992570    -0.290043   -0.233263    0.556700  

   5 f  =   43.811284 THz   275.274416 2PiTHz 1461.387131 cm-1   181.188830 meV
             X         Y         Z           dx          dy          dz
     11.044524 11.717405 10.891772    -0.141951   -0.081646    0.000729  
     11.051974 10.286154 10.891772    -0.076336   -0.026383    0.000138  
      9.991211 12.024412 10.891772    -0.101403   -0.317112   -0.002614  
     11.975588  9.980852 10.891772     0.025247    0.114460    0.000069  
     11.530120 12.134921 11.790974     0.438356    0.294508   -0.378137  
     11.530120 12.134921  9.992570     0.435562    0.296469    0.377605  

   6 f  =   43.451810 THz   273.015772 2PiTHz 1449.396355 cm-1   179.702164 meV
             X         Y         Z           dx          dy          dz
     11.044524 11.717405 10.891772     0.000504    0.000839    0.200954  
     11.051974 10.286154 10.891772     0.000236    0.000348    0.033911  
      9.991211 12.024412 10.891772     0.000029    0.000012   -0.711138  
     11.975588  9.980852 10.891772    -0.000077   -0.000423    0.009545  
     11.530120 12.134921 11.790974     0.385883   -0.270671   -0.063792  
     11.530120 12.134921  9.992570    -0.388296    0.266750   -0.067012  

   7 f  =   42.841055 THz   269.178290 2PiTHz 1429.023788 cm-1   177.176289 meV
             X         Y         Z           dx          dy          dz
     11.044524 11.717405 10.891772    -0.048070    0.330387   -0.000384  
     11.051974 10.286154 10.891772    -0.009753    0.079978   -0.000073  
      9.991211 12.024412 10.891772    -0.190882   -0.569542    0.001319  
     11.975588  9.980852 10.891772    -0.005216    0.014847    0.000019  
     11.530120 12.134921 11.790974     0.200158   -0.454301    0.114768  
     11.530120 12.134921  9.992570     0.201570   -0.455618   -0.114613  

   8 f  =   39.764488 THz   249.847649 2PiTHz 1326.400557 cm-1   164.452636 meV
             X         Y         Z           dx          dy          dz
     11.044524 11.717405 10.891772    -0.379986    0.079946    0.000074  
     11.051974 10.286154 10.891772     0.281206    0.073880   -0.000020  
      9.991211 12.024412 10.891772    -0.012773    0.359994   -0.000065  
     11.975588  9.980852 10.891772    -0.181250   -0.692089   -0.000012  
     11.530120 12.134921 11.790974     0.192961   -0.120070   -0.099462  
     11.530120 12.134921  9.992570     0.192840   -0.120361    0.099347  

   9 f  =   33.961258 THz   213.384876 2PiTHz 1132.825623 cm-1   140.452414 meV
             X         Y         Z           dx          dy          dz
     11.044524 11.717405 10.891772    -0.000131   -0.000065   -0.417956  
     11.051974 10.286154 10.891772     0.000020    0.000230    0.215226  
      9.991211 12.024412 10.891772    -0.000063   -0.000137    0.245681  
     11.975588  9.980852 10.891772    -0.000090   -0.000246    0.008816  
     11.530120 12.134921 11.790974    -0.045601   -0.574049    0.166662  
     11.530120 12.134921  9.992570     0.045679    0.573851    0.166653  

  10 f  =   31.475042 THz   197.763523 2PiTHz 1049.894396 cm-1   130.170256 meV
             X         Y         Z           dx          dy          dz
     11.044524 11.717405 10.891772    -0.213788   -0.412589    0.000084  
     11.051974 10.286154 10.891772     0.029898    0.282711   -0.000006  
      9.991211 12.024412 10.891772     0.090662    0.400152    0.000076  
     11.975588  9.980852 10.891772     0.148586    0.503356   -0.000108  
     11.530120 12.134921 11.790974     0.191389   -0.302235   -0.042047  
     11.530120 12.134921  9.992570     0.191369   -0.302200    0.042062  

  11 f  =   30.070846 THz   188.940695 2PiTHz 1003.055439 cm-1   124.362968 meV
             X         Y         Z           dx          dy          dz
     11.044524 11.717405 10.891772    -0.122854    0.557401   -0.000153  
     11.051974 10.286154 10.891772    -0.000687   -0.632562    0.000090  
      9.991211 12.024412 10.891772     0.033653    0.365336   -0.000108  
     11.975588  9.980852 10.891772     0.159714    0.290251    0.000135  
     11.530120 12.134921 11.790974     0.118017   -0.029152   -0.009636  
     11.530120 12.134921  9.992570     0.118008   -0.028781    0.009747  

  12 f  =    8.841258 THz    55.551263 2PiTHz  294.912627 cm-1    36.564489 meV
             X         Y         Z           dx          dy          dz
     11.044524 11.717405 10.891772     0.001146   -0.000067   -0.020720  
     11.051974 10.286154 10.891772    -0.000056   -0.000225    0.251522  
      9.991211 12.024412 10.891772     0.000357    0.000193   -0.274624  
     11.975588  9.980852 10.891772    -0.000087   -0.000276   -0.868399  
     11.530120 12.134921 11.790974    -0.207562    0.033206    0.094903  
     11.530120 12.134921  9.992570     0.208448   -0.033502    0.094899  

  13 f  =    0.393093 THz     2.469875 2PiTHz   13.112166 cm-1     1.625701 meV
             X         Y         Z           dx          dy          dz
     11.044524 11.717405 10.891772    -0.778686    0.059464    0.192250  
     11.051974 10.286154 10.891772    -0.247313    0.071994    0.130047  
      9.991211 12.024412 10.891772    -0.259634   -0.102940    0.028052  
     11.975588  9.980852 10.891772    -0.027127    0.122982    0.051599  
     11.530120 12.134921 11.790974    -0.299721    0.057976    0.077068  
     11.530120 12.134921  9.992570    -0.244756    0.087134    0.077105  

  14 f  =    0.357922 THz     2.248892 2PiTHz   11.939004 cm-1     1.480247 meV
             X         Y         Z           dx          dy          dz
     11.044524 11.717405 10.891772    -0.205367   -0.000909   -0.757800  
     11.051974 10.286154 10.891772    -0.123639   -0.000356   -0.372691  
      9.991211 12.024412 10.891772    -0.065305   -0.021099   -0.210314  
     11.975588  9.980852 10.891772    -0.024849    0.018237   -0.091383  
     11.530120 12.134921 11.790974    -0.037532    0.088501   -0.271599  
     11.530120 12.134921  9.992570    -0.097548   -0.069698   -0.271576  

  15 f  =    0.007108 THz     0.044662 2PiTHz    0.237104 cm-1     0.029397 meV
             X         Y         Z           dx          dy          dz
     11.044524 11.717405 10.891772    -0.082061   -0.606769    0.023869  
     11.051974 10.286154 10.891772    -0.093600   -0.700160    0.022408  
      9.991211 12.024412 10.891772    -0.023759   -0.175331    0.011447  
     11.975588  9.980852 10.891772    -0.023359   -0.174912    0.001812  
     11.530120 12.134921 11.790974    -0.020107   -0.175788    0.005304  
     11.530120 12.134921  9.992570    -0.027424   -0.174206    0.005260  

  16 f/i=    0.616757 THz     3.875199 2PiTHz   20.572801 cm-1     2.550701 meV
             X         Y         Z           dx          dy          dz
     11.044524 11.717405 10.891772    -0.139719   -0.063759   -0.043942  
     11.051974 10.286154 10.891772     0.880795   -0.067958   -0.044757  
      9.991211 12.024412 10.891772    -0.096275   -0.210591   -0.039956  
     11.975588  9.980852 10.891772     0.275540    0.150668    0.011148  
     11.530120 12.134921 11.790974    -0.139557    0.071026   -0.000591  
     11.530120 12.134921  9.992570    -0.093547    0.069475   -0.000598  

  17 f/i=    0.722515 THz     4.539695 2PiTHz   24.100504 cm-1     2.988080 meV
             X         Y         Z           dx          dy          dz
     11.044524 11.717405 10.891772    -0.040721   -0.000559    0.272525  
     11.051974 10.286154 10.891772    -0.013599   -0.000715   -0.763590  
      9.991211 12.024412 10.891772    -0.013591   -0.006387    0.295441  
     11.975588  9.980852 10.891772    -0.001609    0.005201   -0.380947  
     11.530120 12.134921 11.790974     0.121692   -0.165982    0.083540  
     11.530120 12.134921  9.992570    -0.150002    0.171280    0.083549  

  18 f/i=    1.091073 THz     6.855412 2PiTHz   36.394268 cm-1     4.512312 meV
             X         Y         Z           dx          dy          dz
     11.044524 11.717405 10.891772     0.028715   -0.005804    0.034025  
     11.051974 10.286154 10.891772    -0.044822   -0.006946   -0.384549  
      9.991211 12.024412 10.891772     0.012482    0.012723   -0.472943  
     11.975588  9.980852 10.891772    -0.015390   -0.014359    0.299056  
     11.530120 12.134921 11.790974    -0.417636   -0.077532    0.275162  
     11.530120 12.134921  9.992570     0.445672    0.060857    0.275148  

 Finite differences POTIM=   1.0000000000000000E-002
     LOOP+:  cpu time     56.5845: real time     56.7331
    4ORBIT:  cpu time      0.0000: real time      0.0000

 total amount of memory used by VASP MPI-rank0    95505. kBytes
=======================================================================

   base      :      30000. kBytes
   nonl-proj :       6377. kBytes
   fftplans  :      19862. kBytes
   grid      :      38203. kBytes
   one-center:          1. kBytes
   wavefun   :       1062. kBytes

  
  
 General timing and accounting informations for this job:
 ========================================================
  
                  Total CPU time used (sec):     2280.493
                            User time (sec):     2258.628
                          System time (sec):       21.865
                         Elapsed time (sec):     2299.355
  
                   Maximum memory used (kb):      354844.
                   Average memory used (kb):          N/A
  
                          Minor page faults:      1743226
                          Major page faults:            0
                 Voluntary context switches:        31706
