 **********************************************************************
                          MRCC program system
 **********************************************************************
 
                              Written by
     Mihaly Kallay, Peter R. Nagy, David Mester, Laszlo Gyevi-Nagy,
        Jozsef Csoka, P. Bernat Szabo, Zoltan Rolik, Gyula Samu,
     Jozsef Csontos, Bence Hegely, Adam Ganyecz, Istvan Ladjanszki,
       Lorant Szegedy, Bence Ladoczki, Klara Petrov, Mate Farkas,
                    Pal D. Mezei, and Reka A. Horvath
 
        Department of Physical Chemistry and Materials Science
            Budapest University of Technology and Economics
                  Budapest P.O.Box 91, H-1521 Hungary
 
                              www.mrcc.hu
 
                      Release date: March 18, 2022

 ************************ 2023-02-05 13:27:20 *************************
 Executing minp...

 Reading input from MINP...
 
 Input file:
 
calc=FNO-CCSD(T)
verbosity=3
mem=220GB
unit=angs
scfiguess=small
scfalg=locfit1
ccmaxit=400
ccsdalg=dfdirect
ccsdthreads=4
ccsdmkl=thr
ptthreads=4
lnoepsv=1e-5
naf_cor=1e-2
basis=aug-cc-pVTZ
basis_sm=def2-SVP
dfbasis_scf=def2-QZVPP-RI-JK
dfbasis_cor=aug-cc-pVTZ-RI
unit=angs
geom=xyz
16

C    34.41670262    34.07107264    10.41543014
C    33.11117461    33.45680459    10.91530835
H    34.24160149    35.00442132     9.86225048
H    34.94674030    33.36940783     9.75379242
H    35.10002891    34.30603621    11.24227357
H    32.42643037    33.26105434    10.07939442
H    32.59136835    34.12756100    11.61262818
H    33.28915165    32.50678735    11.43686767
C    17.53473331    25.63008798    10.41543014
C    16.22920530    25.01581994    10.91530835
H    17.35963218    26.56343667     9.86225048
H    18.06477099    24.92842317     9.75379242
H    18.21805960    25.86505155    11.24227357
H    15.54446106    24.82006969    10.07939442
H    15.70939904    25.68657634    11.61262818
H    16.40718234    24.06580270    11.43686767

--------------------Output has been truncated-------------------------


--------------------Output has been truncated-------------------------


--------------------Output has been truncated-------------------------


--------------------Output has been truncated-------------------------


--------------------Output has been truncated-------------------------


--------------------Output has been truncated-------------------------


--------------------Output has been truncated-------------------------


--------------------Output has been truncated-------------------------


--------------------Output has been truncated-------------------------


--------------------Output has been truncated-------------------------


 
 Reference energy [au]:                      -158.519100994858
 DF-MP2 singlet pair energy [au]:              -0.600508679811
 DF-MP2 triplet pair energy [au]:              -0.150062983463
 DF-SCS-MP2 correlation energy [au]:           -0.770631410261
 DF-SCS-MP2 energy [au]:                     -159.289732405118
 DF-SOS-MP2 correlation energy [au]:           -0.780661283754
 DF-SOS-MP2 energy [au]:                     -159.299762278612
 DF-MP2 correlation energy [au]:               -0.750571663274
 DF-MP2 energy [au]:                         -159.269672658131

 Results in FNO basis:
 
 
 Reference energy [au]:                      -158.519100994858
 DF-MP2 singlet pair energy [au]:              -0.598168298242
 DF-MP2 triplet pair energy [au]:              -0.149850445962
 DF-SCS-MP2 correlation energy [au]:           -0.767752106545
 DF-SCS-MP2 energy [au]:                     -159.286853101402
 DF-SOS-MP2 correlation energy [au]:           -0.777618787715
 DF-SOS-MP2 energy [au]:                     -159.296719782572
 DF-MP2 correlation energy [au]:               -0.748018744205
 DF-MP2 energy [au]:                         -159.267119739062

 Results in NAF basis:
 
 
 Reference energy [au]:                      -158.519100994858
 DF-MP2 singlet pair energy [au]:              -0.598047521273
 DF-MP2 triplet pair energy [au]:              -0.149928849110
 DF-SCS-MP2 correlation energy [au]:           -0.767633308564
 DF-SCS-MP2 energy [au]:                     -159.286734303422
 DF-SOS-MP2 correlation energy [au]:           -0.777461777655
 DF-SOS-MP2 energy [au]:                     -159.296562772513
 DF-MP2 correlation energy [au]:               -0.747976370383
 DF-MP2 energy [au]:                         -159.267077365240

 ************************ 2023-02-05 13:28:01 *************************
 Executing ccsd...

 Allocation of 220.0 Gbytes of memory...

 Direct DF-CCSD(T) calculation
 
 Convergence criterion:  1.0E-06
 
 Number of occupied/virtual/auxiliary orbitals:    14   278   756
   3422.71 MB is the minimal memory requirement for (T)
    780.99 MB is the minimal memory requirement for CCSD
 
 Reference energy [au]:            -158.519100994858
 T1 contribution [au]:                0.000000000000
 Same spin MP2 energy [au]:          -0.149889529465
 Opposite spin MP2 energy [au]:      -0.598107568627
 MP2 correlation energy [au]:        -0.747997098092
 Total MP2 energy [au]:            -159.267098092949
 MP2 correction [au]:                -0.002574565182
 
 
 CPU time [min]:     0.872                   Wall time [min]:     0.132
 
 Starting CCSD iterations...
 
                     Residual norm          Energy
 Iteration  1        0.241423559552     -159.308955305424
 Iteration  2        0.060038256886     -159.328085114313
 Iteration  3        0.015975792815     -159.329997227761
 Iteration  4        0.003604183471     -159.330013870216
 Iteration  5        0.000758960692     -159.330024284085
 Iteration  6        0.000215373539     -159.330030439225
 Iteration  7        0.000051276042     -159.330030008612
 Iteration  8        0.000013080234     -159.330030591890
 Iteration  9        0.000002622460     -159.330030539851
 
 CCSD iteration has converged in  9 steps.
    23656.02 MB memory was utilized by CCSD
 
 T1 diagnostic:      7.816E-03            D1 diagnostic:      1.353E-02
 
 T1 contribution [au]:                                  0.000000000000
 PPL energy contribution [au]:                          0.205823000137
 Scaled PPL energy contribution [au]:                   0.206540154030

 OS-PPL energy contribution [au]:                       0.179922580738
 Scaled OS-PPL energy contribution [au]:                0.180664547851
 SS-PPL energy contribution [au]:                       0.025900419399
 Scaled SS-PPL energy contribution [au]:                0.025924021012

 Opposite spin CCSD energy [au]:                       -0.668568183494
 Same spin CCSD energy [au]:                           -0.142398212042
 CCSD correlation energy [au]:                         -0.810966395536
 CCSD correlation energy + MP2 correction [au]:        -0.813540960718
 CCSD correlation energy + MP2 + PPL corr. [au]:       -0.812823806825
 Total CCSD energy [au]:                             -159.330067390393
 Total CCSD energy + MP2 correction [au]:            -159.332641955576
 Total CCSD energy + MP2 + PPL corr. [au]:           -159.331924801683
 
 CPU time [min]:    54.514                   Wall time [min]:     1.835
 
 Calculation of (T) correction...
 
 
     4429.83 MB memory is utilized for (T)

 0%       25%       50%       75%       100%
 |---------|---------|---------|---------| 
 
 (T) correction [au]:                                    -0.027917814333
 (T*) correction [au]:                                   -0.028013905926
 (T+) correction [au]:                                   -0.028012724557
 CCSD(T) correlation energy [au]:                        -0.838884209869
 CCSD(T) correlation energy + MP2 correction [au]:       -0.841458775051
 CCSD(T+) correlation en. + MP2 + PPL corr. [au]:        -0.840836531382
 Total CCSD(T) energy [au]:                            -159.357985204726
 Total CCSD(T) energy + MP2 correction [au]:           -159.360559769909
 Total CCSD(T+) energy + MP2 + PPL corr. [au]:         -159.359937526240
 
 CPU time [min]:   112.414                   Wall time [min]:     3.543
 
 ************************ 2023-02-05 13:31:34 *************************
                      Normal termination of mrcc.
 **********************************************************************
