 vasp.6.3.0 20Jan22 (build Apr  1 2022 16:44:48) gamma-only                      
 executed on        HPECrayEX_GCC date 2023.02.22  03:35:59
 running  512 mpi-ranks, with    1 threads/rank
 distrk:  each k-point on  512 cores,    1 groups
 distr:  one band on NCORE=   8 cores,   64 groups


--------------------------------------------------------------------------------------------------------


 INCAR:
   SYSTEM = MgO-rocksalt
   ISMEAR = 0
   SIGMA = 0.05
   EDIFF = 1E-6
   ALGO = ALL
   ISTART = 0
   IBRION = -1
   NSW = 0
   ISYM = 0
   DIPOL = 0.5 0.5 0.5
   IDIPOL = 3
   LDIPOL = .TRUE.
   GGA = PE
   IVDW = 1
   VDW_C6 = 0.63 0.70
   VDW_R0 = 1.243 1.342
   ENCUT = 520
   PREC = Accurate
   LASPH = .TRUE.
   LREAL = Auto
   ISPIN = 1
   NELM = 200
   NELMIN = 8
   NCORE = 8
   KPAR = 1
   LWAVE = .FALSE.
   LCHARG = .FALSE.

 POTCAR:    PAW_PBE Mg_pv 13Apr2007               
 POTCAR:    PAW_PBE O 08Apr2002                   
 POTCAR:    PAW_PBE Mg_pv 13Apr2007               
   SHA256 =  f474ac0dd33840b9ae76c01d57fea79fdf77cdfbb07d5ade72c65f83c709b62b Mg_pv/POTCAR          
   COPYR  = (c) Copyright 13Apr2007 Georg Kresse                                                    
   COPYR  = This file is part of the software VASP. Any use, copying, and all other rights are regul
   COPYR  = If you do not have a valid VASP license, you may not use, copy or distribute this file. 
   VRHFIN =Mg: p6s2                                                                                 
   LEXCH  = PE                                                                                      
   EATOM  =  1056.7344 eV,   77.6678 Ry                                                             
                                                                                                    
   TITEL  = PAW_PBE Mg_pv 13Apr2007                                                                 
   LULTRA =        F    use ultrasoft PP ?                                                          
   IUNSCR =        1    unscreen: 0-lin 1-nonlin 2-no                                               
   RPACOR =    1.500    partial core radius                                                         
   POMASS =   24.305; ZVAL   =    8.000    mass and valenz                                          
   RCORE  =    2.000    outmost cutoff radius                                                       
   RWIGS  =    2.000; RWIGS  =    1.058    wigner-seitz radius (au A)                               
   ENMAX  =  403.929; ENMIN  =  302.947 eV                                                          
   RCLOC  =    1.506    cutoff for local pot                                                        
   LCOR   =        T    correct aug charges                                                         
   LPAW   =        T    paw PP                                                                      
   EAUG   =  758.780                                                                                
   DEXC   =    0.000                                                                                
   RMAX   =    2.045    core radius for proj-oper                                                   
   RAUG   =    1.300    factor for augmentation sphere                                              
   RDEP   =    2.025    radius for radial grids                                                     
   RDEPT  =    1.557    core radius for aug-charge                                                  
                                                                                                    
   Atomic configuration                                                                             
    5 entries                                                                                       
     n  l   j            E        occ.                                                              
     1  0  0.50     -1259.6230   2.0000                                                             
     2  0  0.50       -79.8442   2.0000                                                             
     2  1  1.50       -46.6121   6.0000                                                             
     3  0  0.50        -4.7055   2.0000                                                             
     3  2  1.50        -1.3606   0.0000                                                             
   Description                                                                                      
     l       E           TYP  RCUT    TYP  RCUT                                                     
     1    -46.6121073     23  1.600                                                                 
     1      2.7211652     23  1.600                                                                 
     0     -4.7054661     23  2.000                                                                 
     0     61.2262170     23  2.000                                                                 
     2     -1.3605826     23  2.000                                                                 
  local pseudopotential read in
  partial core-charges read in
  partial kinetic energy density read in
  atomic valenz-charges read in
  non local Contribution for L=           1  read in
    real space projection operators read in
  non local Contribution for L=           1  read in
    real space projection operators read in
  non local Contribution for L=           0  read in
    real space projection operators read in
  non local Contribution for L=           0  read in
    real space projection operators read in
  non local Contribution for L=           2  read in
    real space projection operators read in
    PAW grid and wavefunctions read in

   number of l-projection  operators is LMAX  =           5
   number of lm-projection operators is LMMAX =          13

 POTCAR:    PAW_PBE O 08Apr2002                   
   SHA256 =  818f92134a0a090dccd8ba1447fa70422a3b330e708bb4f08108d8ae51209ddf O/POTCAR              
   COPYR  = (c) Copyright 08Apr2002 Georg Kresse                                                    
   COPYR  = This file is part of the software VASP. Any use, copying, and all other rights are regul
   COPYR  = If you do not have a valid VASP license, you may not use, copy or distribute this file. 
   VRHFIN =O: s2p4                                                                                  
   LEXCH  = PE                                                                                      
   EATOM  =   432.3788 eV,   31.7789 Ry                                                             
                                                                                                    
   TITEL  = PAW_PBE O 08Apr2002                                                                     
   LULTRA =        F    use ultrasoft PP ?                                                          
   IUNSCR =        1    unscreen: 0-lin 1-nonlin 2-no                                               
   RPACOR =    1.200    partial core radius                                                         
   POMASS =   16.000; ZVAL   =    6.000    mass and valenz                                          
   RCORE  =    1.520    outmost cutoff radius                                                       
   RWIGS  =    1.550; RWIGS  =    0.820    wigner-seitz radius (au A)                               
   ENMAX  =  400.000; ENMIN  =  300.000 eV                                                          
   ICORE  =        2    local potential                                                             
   LCOR   =        T    correct aug charges                                                         
   LPAW   =        T    paw PP                                                                      
   EAUG   =  605.392                                                                                
   DEXC   =    0.000                                                                                
   RMAX   =    1.553    core radius for proj-oper                                                   
   RAUG   =    1.300    factor for augmentation sphere                                              
   RDEP   =    1.550    radius for radial grids                                                     
   RDEPT  =    1.329    core radius for aug-charge                                                  
                                                                                                    
   Atomic configuration                                                                             
    4 entries                                                                                       
     n  l   j            E        occ.                                                              
     1  0  0.50      -514.6923   2.0000                                                             
     2  0  0.50       -23.9615   2.0000                                                             
     2  1  0.50        -9.0305   4.0000                                                             
     3  2  1.50        -9.5241   0.0000                                                             
   Description                                                                                      
     l       E           TYP  RCUT    TYP  RCUT                                                     
     0    -23.9615318     23  1.200                                                                 
     0     -9.5240782     23  1.200                                                                 
     1     -9.0304911     23  1.520                                                                 
     1      8.1634956     23  1.520                                                                 
     2     -9.5240782      7  1.500                                                                 
  local pseudopotential read in
  partial core-charges read in
  partial kinetic energy density read in
  kinetic energy density of atom read in
  atomic valenz-charges read in
  non local Contribution for L=           0  read in
    real space projection operators read in
  non local Contribution for L=           0  read in
    real space projection operators read in
  non local Contribution for L=           1  read in
    real space projection operators read in
  non local Contribution for L=           1  read in
    real space projection operators read in
    PAW grid and wavefunctions read in

   number of l-projection  operators is LMAX  =           4
   number of lm-projection operators is LMMAX =           8

 Optimization of the real space projectors (new method)

 maximal supplied QI-value         = 18.90
 optimisation between [QCUT,QGAM] = [ 11.53, 23.24] = [ 37.21,151.29] Ry 
 Optimized for a Real-space Cutoff    1.28 Angstroem

   l    n(q)    QCUT    max X(q) W(low)/X(q) W(high)/X(q)  e(spline) 
   1      8    11.527     2.974    0.44E-04    0.56E-04    0.12E-06
   1      8    11.527     4.279    0.12E-03    0.12E-03    0.26E-06
   0      9    11.527    16.381    0.46E-04    0.64E-04    0.78E-07
   0      9    11.527     5.611    0.26E-04    0.43E-04    0.55E-07
   2      8    11.527     4.652    0.22E-03    0.72E-04    0.47E-07
 Optimization of the real space projectors (new method)

 maximal supplied QI-value         = 24.76
 optimisation between [QCUT,QGAM] = [ 11.64, 23.27] = [ 37.91,151.63] Ry 
 Optimized for a Real-space Cutoff    1.14 Angstroem

   l    n(q)    QCUT    max X(q) W(low)/X(q) W(high)/X(q)  e(spline) 
   0      8    11.635    20.381    0.10E-03    0.33E-03    0.24E-06
   0      8    11.635    15.268    0.11E-03    0.35E-03    0.26E-06
   1      7    11.635     5.964    0.24E-03    0.31E-03    0.30E-06
   1      7    11.635     5.382    0.22E-03    0.25E-03    0.26E-06
  PAW_PBE Mg_pv 13Apr2007               :
 energy of atom  1       EATOM=-1056.7344
 kinetic energy error for atom=    0.0340 (will be added to EATOM!!)
  PAW_PBE O 08Apr2002                   :
 energy of atom  2       EATOM= -432.3788
 kinetic energy error for atom=    0.0208 (will be added to EATOM!!)


 POSCAR: Mg  O
  positions in direct lattice
  No initial velocities read in
 exchange correlation table for  LEXCH =        8
   RHO(1)=    0.500       N(1)  =     2000
   RHO(2)=  100.500       N(2)  =     4000



--------------------------------------------------------------------------------------------------------


 ion  position               nearest neighbor table
   1  0.125  0.000  0.352- 129 2.11 131 2.11 132 2.11 148 2.11 171 2.11
   2  0.250  0.125  0.352- 130 2.11 131 2.11 132 2.11 140 2.11 147 2.11
   3  0.125  0.125  0.451- 135 2.11 131 2.11 129 2.11 130 2.11 137 2.11 146 2.11
   4  0.250  0.000  0.451- 136 2.11 132 2.11 129 2.11 130 2.11 145 2.11 170 2.11
   5  0.125  1.000  0.550- 152 2.11 175 2.11 135 2.11 136 2.11 129 2.11 133 2.14
   6  0.250  0.125  0.550- 144 2.11 151 2.11 135 2.11 136 2.11 130 2.11 134 2.14
   7  0.125  0.125  0.648- 135 2.10 134 2.10 150 2.11 141 2.11 133 2.11
   8  0.250  1.000  0.648- 136 2.10 134 2.10 174 2.11 149 2.11 133 2.11
   9  0.125  0.250  0.352- 137 2.11 131 2.11 139 2.11 140 2.11 156 2.11
  10  0.250  0.375  0.352- 138 2.11 139 2.11 140 2.11 155 2.11 164 2.11
  11  0.125  0.375  0.451- 139 2.11 138 2.11 137 2.11 154 2.11 161 2.11 143 2.11
  12  0.250  0.250  0.451- 144 2.11 140 2.11 138 2.11 130 2.11 137 2.11 153 2.11
  13  0.125  0.250  0.550- 144 2.10 160 2.11 143 2.11 135 2.11 137 2.11 141 2.14
  14  0.250  0.375  0.550- 159 2.09 144 2.11 168 2.11 143 2.12 138 2.12 142 2.15
  15  0.125  0.375  0.648- 143 2.09 142 2.10 158 2.11 141 2.11 165 2.11
  16  0.250  0.250  0.647- 144 2.09 157 2.09 141 2.11 134 2.11 142 2.12
  17  0.375  0.000  0.352- 145 2.11 132 2.11 147 2.11 187 2.11 212 2.11
  18  0.000  0.125  0.352- 146 2.11 131 2.11 148 2.11 156 2.11 211 2.11
  19  0.375  0.125  0.451- 151 2.11 147 2.11 130 2.11 145 2.11 153 2.11 210 2.11
  20  0.000  0.000  0.451- 148 2.11 146 2.11 129 2.11 186 2.11 209 2.11 152 2.11
  21  0.375  1.000  0.550- 151 2.10 191 2.11 216 2.11 136 2.11 145 2.11 149 2.14
  22  0.000  0.125  0.550- 135 2.11 215 2.11 152 2.11 160 2.11 146 2.11 150 2.14
  23  0.375  0.125  0.647- 151 2.08 157 2.09 149 2.11 134 2.11 214 2.12
  24  0.000  1.000  0.648- 152 2.10 133 2.11 213 2.11 190 2.11 150 2.11
  25  0.375  0.250  0.352- 153 2.11 147 2.11 140 2.11 155 2.11 220 2.11
  26  0.000  0.375  0.352- 154 2.11 139 2.11 156 2.11 180 2.11 219 2.11
  27  0.375  0.375  0.451- 155 2.11 153 2.11 138 2.11 177 2.11 218 2.11 159 2.12
  28  0.000  0.250  0.451- 156 2.11 146 2.11 154 2.11 137 2.11 217 2.11 160 2.11
  29  0.375  0.250  0.550- 159 2.10 224 2.10 157 2.11 151 2.12 144 2.12 153 2.13
  30  0.000  0.375  0.550- 143 2.11 223 2.11 184 2.11 160 2.11 154 2.12 158 2.14
  31  0.375  0.375  0.651- 222 2.11 157 2.13 142 2.13 181 2.14 159 2.15
  32  0.000  0.250  0.648- 160 2.10 141 2.11 221 2.11 150 2.11 158 2.11
  33  0.125  0.500  0.352- 161 2.11 139 2.11 163 2.11 164 2.11 180 2.11
  34  0.250  0.625  0.352- 162 2.11 163 2.11 164 2.11 172 2.11 179 2.11
  35  0.125  0.625  0.451- 167 2.11 163 2.11 161 2.11 162 2.11 169 2.11 178 2.11
  36  0.250  0.500  0.451- 168 2.11 164 2.11 162 2.11 138 2.11 161 2.11 177 2.11
  37  0.125  0.500  0.550- 168 2.10 184 2.11 143 2.11 167 2.11 161 2.11 165 2.14
  38  0.250  0.625  0.550- 183 2.11 168 2.11 176 2.11 162 2.11 167 2.11 166 2.14
  39  0.125  0.625  0.648- 167 2.10 166 2.10 182 2.11 165 2.11 173 2.11
  40  0.250  0.500  0.647- 168 2.08 181 2.09 165 2.11 166 2.11 142 2.12
  41  0.125  0.750  0.352- 169 2.11 163 2.11 171 2.11 172 2.11 188 2.11
  42  0.250  0.875  0.352- 170 2.11 132 2.11 171 2.11 172 2.11 187 2.11
  43  0.125  0.875  0.451- 175 2.11 171 2.11 170 2.11 129 2.11 169 2.11 186 2.11
  44  0.250  0.750  0.451- 176 2.11 172 2.11 170 2.11 162 2.11 169 2.11 185 2.11
  45  0.125  0.750  0.550- 175 2.11 192 2.11 167 2.11 176 2.11 169 2.11 173 2.14
  46  0.250  0.875  0.550- 176 2.11 136 2.11 175 2.11 191 2.11 170 2.11 174 2.14
  47  0.125  0.875  0.648- 175 2.10 133 2.11 173 2.11 190 2.11 174 2.11
  48  0.250  0.750  0.648- 176 2.10 166 2.10 174 2.11 189 2.11 173 2.11
  49  0.375  0.500  0.352- 177 2.11 164 2.11 155 2.11 179 2.11 244 2.11
  50  0.000  0.625  0.352- 178 2.11 163 2.11 180 2.11 188 2.11 243 2.11
  51  0.375  0.625  0.451- 183 2.11 179 2.11 162 2.11 177 2.11 185 2.11 242 2.11
  52  0.000  0.500  0.451- 180 2.11 161 2.11 178 2.11 154 2.11 241 2.11 184 2.11
  53  0.375  0.500  0.550- 159 2.10 248 2.10 181 2.11 168 2.12 183 2.12 177 2.13
  54  1.000  0.625  0.550- 247 2.11 167 2.11 192 2.11 184 2.11 178 2.11 182 2.14
  55  0.375  0.625  0.647- 183 2.09 181 2.09 189 2.11 166 2.11 246 2.12
  56  0.000  0.500  0.648- 184 2.10 245 2.11 165 2.11 182 2.11 158 2.11
  57  0.375  0.750  0.352- 185 2.11 179 2.11 172 2.11 187 2.11 252 2.11
  58  0.000  0.875  0.352- 186 2.11 171 2.11 148 2.11 188 2.11 251 2.11
  59  0.375  0.875  0.451- 187 2.11 170 2.11 185 2.11 145 2.11 250 2.11 191 2.11
  60  0.000  0.750  0.451- 188 2.11 178 2.11 186 2.11 169 2.11 249 2.11 192 2.11
  61  0.375  0.750  0.550- 183 2.10 191 2.11 256 2.11 176 2.11 185 2.11 189 2.14
  62  1.000  0.875  0.550- 152 2.11 255 2.11 175 2.11 192 2.11 186 2.12 190 2.14
  63  0.375  0.875  0.648- 191 2.10 149 2.11 189 2.11 174 2.11 254 2.11
  64  1.000  0.750  0.648- 192 2.10 253 2.11 173 2.11 190 2.11 182 2.11
  65  0.625  0.000  0.352- 193 2.11 195 2.11 196 2.11 212 2.11 235 2.11
  66  0.750  0.125  0.352- 194 2.11 195 2.11 196 2.11 204 2.11 211 2.11
  67  0.625  0.125  0.451- 199 2.11 195 2.11 193 2.11 194 2.11 201 2.11 210 2.11
  68  0.750  0.000  0.451- 200 2.11 196 2.11 193 2.11 194 2.11 209 2.11 234 2.11
  69  0.625  1.000  0.550- 199 2.10 239 2.11 216 2.11 200 2.11 193 2.11 197 2.14
  70  0.750  0.125  0.550- 199 2.11 208 2.11 200 2.11 215 2.11 194 2.11 198 2.14
  71  0.625  0.125  0.647- 199 2.09 205 2.09 197 2.11 198 2.11 214 2.12
  72  0.750  1.000  0.648- 200 2.10 198 2.10 238 2.11 197 2.11 213 2.11
  73  0.625  0.250  0.352- 201 2.11 195 2.11 203 2.11 204 2.11 220 2.11
  74  0.750  0.375  0.352- 202 2.11 203 2.11 204 2.11 219 2.11 228 2.11
  75  0.625  0.375  0.451- 203 2.11 202 2.11 201 2.11 218 2.11 225 2.11 207 2.12
  76  0.750  0.250  0.451- 208 2.11 204 2.11 202 2.11 194 2.11 201 2.11 217 2.11
  77  0.625  0.250  0.550- 224 2.10 207 2.10 205 2.11 208 2.12 199 2.12 201 2.13
  78  0.750  0.375  0.550- 207 2.09 232 2.11 208 2.11 223 2.12 202 2.12 206 2.16
  79  0.625  0.375  0.651- 222 2.11 229 2.13 206 2.13 205 2.14 207 2.15
  80  0.750  0.250  0.647- 208 2.08 205 2.09 221 2.11 198 2.11 206 2.12
  81  0.875  0.000  0.352- 209 2.11 196 2.11 148 2.11 211 2.11 251 2.11
  82  0.500  0.125  0.352- 210 2.11 195 2.11 147 2.11 212 2.11 220 2.11
  83  0.875  0.125  0.451- 215 2.11 211 2.11 209 2.11 146 2.11 194 2.11 217 2.11
  84  0.500  0.000  0.451- 212 2.11 193 2.11 210 2.11 145 2.11 250 2.11 216 2.11
  85  0.875  1.000  0.550- 255 2.11 152 2.11 215 2.11 200 2.11 209 2.11 213 2.14
  86  0.500  0.125  0.550- 224 2.09 199 2.11 151 2.11 216 2.12 210 2.12 214 2.15
  87  0.875  0.125  0.648- 215 2.10 198 2.10 150 2.11 221 2.11 213 2.11
  88  0.500  1.000  0.648- 216 2.09 214 2.10 254 2.11 197 2.11 149 2.11
  89  0.875  0.250  0.352- 217 2.11 204 2.11 211 2.11 156 2.11 219 2.11
  90  0.500  0.375  0.352- 218 2.11 203 2.11 155 2.11 220 2.11 244 2.11
  91  0.875  0.375  0.451- 219 2.11 202 2.11 217 2.11 154 2.11 241 2.11 223 2.11
  92  0.500  0.250  0.451- 220 2.11 201 2.11 210 2.11 218 2.11 153 2.11 224 2.12
  93  0.875  0.250  0.550- 208 2.10 160 2.11 223 2.11 215 2.11 217 2.11 221 2.14
  94  0.500  0.375  0.551- 222 2.07 224 2.12 159 2.12 207 2.12 248 2.12 218 2.14
  95  0.875  0.375  0.648- 223 2.09 206 2.10 158 2.11 221 2.11 245 2.11
  96  0.500  0.250  0.651- 222 2.11 205 2.13 214 2.13 157 2.14 224 2.16
  97  0.625  0.500  0.352- 225 2.11 203 2.11 227 2.11 228 2.11 244 2.11
  98  0.750  0.625  0.352- 226 2.11 227 2.11 228 2.11 236 2.11 243 2.11
  99  0.625  0.625  0.451- 231 2.11 227 2.11 225 2.11 226 2.11 233 2.11 242 2.11
 100  0.750  0.500  0.451- 232 2.11 228 2.11 226 2.11 202 2.11 225 2.11 241 2.11
 101  0.625  0.500  0.550- 207 2.10 248 2.10 229 2.11 232 2.12 231 2.12 225 2.13
 102  0.750  0.625  0.550- 232 2.11 231 2.11 247 2.11 226 2.11 240 2.11 230 2.14
 103  0.625  0.625  0.647- 231 2.08 229 2.09 237 2.11 230 2.11 246 2.12
 104  0.750  0.500  0.647- 232 2.09 229 2.09 245 2.11 230 2.11 206 2.12
 105  0.625  0.750  0.352- 233 2.11 227 2.11 235 2.11 236 2.11 252 2.11
 106  0.750  0.875  0.352- 234 2.11 196 2.11 235 2.11 236 2.11 251 2.11
 107  0.625  0.875  0.451- 235 2.11 233 2.11 234 2.11 193 2.11 250 2.11 239 2.11
 108  0.750  0.750  0.451- 240 2.11 236 2.11 234 2.11 226 2.11 233 2.11 249 2.11
 109  0.625  0.750  0.550- 231 2.10 239 2.11 256 2.11 240 2.11 233 2.11 237 2.14
 110  0.750  0.875  0.550- 200 2.11 240 2.11 255 2.11 239 2.11 234 2.11 238 2.14
 111  0.625  0.875  0.648- 239 2.10 197 2.11 237 2.11 238 2.11 254 2.11
 112  0.750  0.750  0.648- 240 2.10 230 2.10 238 2.11 237 2.11 253 2.11
 113  0.875  0.500  0.352- 241 2.11 219 2.11 228 2.11 180 2.11 243 2.11
 114  0.500  0.625  0.352- 242 2.11 227 2.11 179 2.11 244 2.11 252 2.11
 115  0.875  0.625  0.451- 247 2.11 243 2.11 241 2.11 178 2.11 226 2.11 249 2.11
 116  0.500  0.500  0.451- 244 2.11 218 2.11 225 2.11 242 2.11 177 2.11 248 2.12
 117  0.875  0.500  0.550- 232 2.10 184 2.11 223 2.11 247 2.11 241 2.11 245 2.14
 118  0.500  0.625  0.550- 248 2.09 183 2.11 231 2.11 256 2.12 242 2.12 246 2.16
 119  0.875  0.625  0.648- 247 2.10 230 2.10 182 2.11 245 2.11 253 2.11
 120  0.499  0.500  0.650- 222 2.10 181 2.13 246 2.14 229 2.14 248 2.14
 121  0.875  0.750  0.352- 249 2.11 236 2.11 243 2.11 188 2.11 251 2.11
 122  0.500  0.875  0.352- 250 2.11 212 2.11 235 2.11 187 2.11 252 2.11
 123  0.875  0.875  0.451- 255 2.11 251 2.11 234 2.11 249 2.11 186 2.11 209 2.11
 124  0.500  0.750  0.451- 252 2.11 233 2.11 242 2.11 250 2.11 185 2.11 256 2.11
 125  0.875  0.750  0.550- 192 2.11 255 2.11 240 2.11 247 2.11 249 2.11 253 2.14
 126  0.500  0.875  0.550- 216 2.11 256 2.11 191 2.11 239 2.11 250 2.12 254 2.14
 127  0.875  0.875  0.648- 255 2.10 213 2.11 253 2.11 190 2.11 238 2.11
 128  0.500  0.750  0.648- 256 2.09 246 2.10 254 2.11 189 2.11 237 2.11
 129  0.125  0.000  0.451-   1 2.11   3 2.11   4 2.11  20 2.11  43 2.11   5 2.11
 130  0.250  0.125  0.451-   2 2.11   3 2.11   4 2.11  12 2.11  19 2.11   6 2.11
 131  0.125  0.125  0.352-   3 2.11   2 2.11   1 2.11   9 2.11  18 2.11
 132  0.250  0.000  0.352-   4 2.11   2 2.11   1 2.11  17 2.11  42 2.11
 133  0.125  1.000  0.650-  47 2.11  24 2.11   8 2.11   7 2.11   5 2.14
 134  0.249  0.124  0.650-   8 2.10   7 2.10  23 2.11  16 2.11   6 2.14
 135  0.125  0.125  0.549-   7 2.10  22 2.11   3 2.11   5 2.11   6 2.11  13 2.11
 136  0.250  1.000  0.549-   8 2.10  46 2.11   5 2.11   4 2.11   6 2.11  21 2.11
 137  0.125  0.250  0.451-   9 2.11   3 2.11  11 2.11  12 2.11  28 2.11  13 2.11
 138  0.250  0.375  0.451-  10 2.11  11 2.11  12 2.11  27 2.11  36 2.11  14 2.12
 139  0.125  0.375  0.352-  11 2.11  10 2.11   9 2.11  26 2.11  33 2.11
 140  0.250  0.250  0.352-  12 2.11   9 2.11  10 2.11   2 2.11  25 2.11
 141  0.125  0.250  0.650-  32 2.11   7 2.11  16 2.11  15 2.11  13 2.14
 142  0.249  0.375  0.651-  15 2.10  40 2.12  16 2.12  31 2.13  14 2.15
 143  0.125  0.375  0.550-  15 2.09  30 2.11  37 2.11  13 2.11  11 2.11  14 2.12
 144  0.250  0.250  0.549-  16 2.09  13 2.10  12 2.11   6 2.11  14 2.11  29 2.12
 145  0.375  0.000  0.451-  17 2.11   4 2.11  19 2.11  59 2.11  84 2.11  21 2.11
 146  0.000  0.125  0.451-  18 2.11   3 2.11  20 2.11  28 2.11  83 2.11  22 2.11
 147  0.375  0.125  0.352-  19 2.11  17 2.11   2 2.11  25 2.11  82 2.11
 148  0.000  0.000  0.352-  20 2.11  18 2.11   1 2.11  58 2.11  81 2.11
 149  0.375  1.000  0.650-  63 2.11   8 2.11  23 2.11  88 2.11  21 2.14
 150  0.000  0.125  0.650-  87 2.11   7 2.11  32 2.11  24 2.11  22 2.14
 151  0.375  0.125  0.549-  23 2.08  21 2.10  19 2.11   6 2.11  86 2.11  29 2.12
 152  0.000  1.000  0.549-  24 2.10  62 2.11   5 2.11  85 2.11  22 2.11  20 2.11
 153  0.375  0.250  0.451-  25 2.11  19 2.11  12 2.11  27 2.11  92 2.11  29 2.13
 154  0.000  0.375  0.451-  26 2.11  11 2.11  28 2.11  52 2.11  91 2.11  30 2.12
 155  0.375  0.375  0.352-  27 2.11  25 2.11  10 2.11  49 2.11  90 2.11
 156  0.000  0.250  0.352-  28 2.11  18 2.11  26 2.11   9 2.11  89 2.11
 157  0.374  0.249  0.649-  23 2.09  16 2.09  29 2.11  31 2.13  96 2.14
 158  0.000  0.375  0.650-  15 2.11  95 2.11  32 2.11  56 2.11  30 2.14
 159  0.374  0.375  0.550-  14 2.09  29 2.10  53 2.10  27 2.12  94 2.12  31 2.15
 160  0.000  0.250  0.549-  32 2.10  93 2.11  13 2.11  30 2.11  28 2.11  22 2.11
 161  0.125  0.500  0.451-  33 2.11  11 2.11  35 2.11  36 2.11  52 2.11  37 2.11
 162  0.250  0.625  0.451-  34 2.11  35 2.11  36 2.11  44 2.11  51 2.11  38 2.11
 163  0.125  0.625  0.352-  35 2.11  34 2.11  33 2.11  41 2.11  50 2.11
 164  0.250  0.500  0.352-  36 2.11  33 2.11  34 2.11  10 2.11  49 2.11
 165  0.125  0.500  0.650-  56 2.11  39 2.11  40 2.11  15 2.11  37 2.14
 166  0.249  0.625  0.650-  39 2.10  48 2.10  40 2.11  55 2.11  38 2.14
 167  0.125  0.625  0.549-  39 2.10  54 2.11  35 2.11  45 2.11  38 2.11  37 2.11
 168  0.250  0.500  0.549-  40 2.08  37 2.10  36 2.11  38 2.11  14 2.11  53 2.12
 169  0.125  0.750  0.451-  41 2.11  35 2.11  43 2.11  44 2.11  60 2.11  45 2.11
 170  0.250  0.875  0.451-  42 2.11   4 2.11  43 2.11  44 2.11  59 2.11  46 2.11
 171  0.125  0.875  0.352-  43 2.11  41 2.11  42 2.11   1 2.11  58 2.11
 172  0.250  0.750  0.352-  44 2.11  41 2.11  42 2.11  34 2.11  57 2.11
 173  0.125  0.750  0.650-  47 2.11  64 2.11  39 2.11  48 2.11  45 2.14
 174  0.250  0.875  0.650-  48 2.11   8 2.11  47 2.11  63 2.11  46 2.14
 175  0.125  0.875  0.549-  47 2.10  45 2.11   5 2.11  62 2.11  43 2.11  46 2.11
 176  0.250  0.750  0.549-  48 2.10  46 2.11  44 2.11  45 2.11  38 2.11  61 2.11
 177  0.375  0.500  0.451-  49 2.11  36 2.11  27 2.11  51 2.11 116 2.11  53 2.13
 178  0.000  0.625  0.451-  50 2.11  35 2.11  52 2.11  60 2.11 115 2.11  54 2.11
 179  0.375  0.625  0.352-  51 2.11  49 2.11  34 2.11  57 2.11 114 2.11
 180  0.000  0.500  0.352-  52 2.11  33 2.11  50 2.11  26 2.11 113 2.11
 181  0.373  0.501  0.649-  40 2.09  55 2.09  53 2.11 120 2.13  31 2.14
 182  0.000  0.625  0.650-  39 2.11 119 2.11  64 2.11  56 2.11  54 2.14
 183  0.375  0.625  0.549-  55 2.09  61 2.10  51 2.11  38 2.11 118 2.11  53 2.12
 184  0.000  0.500  0.550-  56 2.10  37 2.11 117 2.11  30 2.11  54 2.11  52 2.11
 185  0.375  0.750  0.451-  57 2.11  51 2.11  44 2.11  59 2.11 124 2.11  61 2.11
 186  0.000  0.875  0.451-  58 2.11  43 2.11  20 2.11  60 2.11 123 2.11  62 2.12
 187  0.375  0.875  0.352-  59 2.11  42 2.11  57 2.11  17 2.11 122 2.11
 188  0.000  0.750  0.352-  60 2.11  50 2.11  58 2.11  41 2.11 121 2.11
 189  0.375  0.750  0.650-  63 2.11  48 2.11  55 2.11 128 2.11  61 2.14
 190  0.000  0.875  0.650-  64 2.11 127 2.11  47 2.11  24 2.11  62 2.14
 191  0.375  0.875  0.549-  63 2.10  21 2.11  61 2.11 126 2.11  59 2.11  46 2.11
 192  1.000  0.750  0.549-  64 2.10 125 2.11  45 2.11  62 2.11  60 2.11  54 2.11
 193  0.625  0.000  0.451-  65 2.11  67 2.11  68 2.11  84 2.11 107 2.11  69 2.11
 194  0.750  0.125  0.451-  66 2.11  67 2.11  68 2.11  76 2.11  83 2.11  70 2.11
 195  0.625  0.125  0.352-  67 2.11  66 2.11  65 2.11  73 2.11  82 2.11
 196  0.750  0.000  0.352-  68 2.11  66 2.11  65 2.11  81 2.11 106 2.11
 197  0.625  1.000  0.650- 111 2.11  72 2.11  71 2.11  88 2.11  69 2.14
 198  0.751  0.124  0.650-  87 2.10  72 2.10  80 2.11  71 2.11  70 2.14
 199  0.625  0.125  0.549-  71 2.09  69 2.10  67 2.11  70 2.11  86 2.11  77 2.12
 200  0.750  1.000  0.549-  72 2.10 110 2.11  85 2.11  68 2.11  70 2.11  69 2.11
 201  0.625  0.250  0.451-  73 2.11  67 2.11  75 2.11  76 2.11  92 2.11  77 2.13
 202  0.750  0.375  0.451-  74 2.11  75 2.11  76 2.11  91 2.11 100 2.11  78 2.12
 203  0.625  0.375  0.352-  75 2.11  74 2.11  73 2.11  90 2.11  97 2.11
 204  0.750  0.250  0.352-  76 2.11  73 2.11  74 2.11  66 2.11  89 2.11
 205  0.626  0.249  0.649-  80 2.09  71 2.09  77 2.11  96 2.13  79 2.14
 206  0.751  0.375  0.651-  95 2.10  80 2.12 104 2.12  79 2.13  78 2.16
 207  0.626  0.375  0.550-  78 2.09 101 2.10  77 2.10  75 2.12  94 2.12  79 2.15
 208  0.750  0.250  0.549-  80 2.08  93 2.10  76 2.11  70 2.11  78 2.11  77 2.12
 209  0.875  0.000  0.451-  81 2.11  68 2.11  20 2.11  83 2.11 123 2.11  85 2.11
 210  0.500  0.125  0.451-  82 2.11  67 2.11  19 2.11  84 2.11  92 2.11  86 2.12
 211  0.875  0.125  0.352-  83 2.11  66 2.11  81 2.11  18 2.11  89 2.11
 212  0.500  0.000  0.352-  84 2.11  65 2.11  82 2.11  17 2.11 122 2.11
 213  0.875  1.000  0.650- 127 2.11  24 2.11  72 2.11  87 2.11  85 2.14
 214  0.500  0.124  0.651-  88 2.10  23 2.12  71 2.12  96 2.13  86 2.15
 215  0.875  0.125  0.549-  87 2.10  22 2.11  83 2.11  85 2.11  70 2.11  93 2.11
 216  0.500  1.000  0.550-  88 2.09 126 2.11  21 2.11  69 2.11  84 2.11  86 2.12
 217  0.875  0.250  0.451-  89 2.11  76 2.11  83 2.11  28 2.11  91 2.11  93 2.11
 218  0.500  0.375  0.451-  90 2.11  75 2.11  27 2.11  92 2.11 116 2.11  94 2.14
 219  0.875  0.375  0.352-  91 2.11  74 2.11  89 2.11  26 2.11 113 2.11
 220  0.500  0.250  0.352-  92 2.11  73 2.11  82 2.11  90 2.11  25 2.11
 221  0.875  0.250  0.650-  32 2.11  87 2.11  80 2.11  95 2.11  93 2.14
 222  0.500  0.375  0.648-  94 2.07 120 2.10  79 2.11  31 2.11  96 2.11
 223  0.875  0.375  0.550-  95 2.09  30 2.11 117 2.11  93 2.11  91 2.11  78 2.12
 224  0.500  0.249  0.550-  86 2.09  77 2.10  29 2.10  94 2.12  92 2.12  96 2.16
 225  0.625  0.500  0.451-  97 2.11  75 2.11  99 2.11 100 2.11 116 2.11 101 2.13
 226  0.750  0.625  0.451-  98 2.11  99 2.11 100 2.11 108 2.11 115 2.11 102 2.11
 227  0.625  0.625  0.352-  99 2.11  98 2.11  97 2.11 105 2.11 114 2.11
 228  0.750  0.500  0.352- 100 2.11  97 2.11  98 2.11  74 2.11 113 2.11
 229  0.626  0.502  0.649- 103 2.09 104 2.09 101 2.11  79 2.13 120 2.14
 230  0.751  0.626  0.650- 112 2.10 119 2.10 103 2.11 104 2.11 102 2.14
 231  0.625  0.625  0.549- 103 2.08 109 2.10  99 2.11 102 2.11 118 2.11 101 2.12
 232  0.750  0.500  0.549- 104 2.09 117 2.10 100 2.11 102 2.11  78 2.11 101 2.12
 233  0.625  0.750  0.451- 105 2.11  99 2.11 107 2.11 108 2.11 124 2.11 109 2.11
 234  0.750  0.875  0.451- 106 2.11  68 2.11 107 2.11 108 2.11 123 2.11 110 2.11
 235  0.625  0.875  0.352- 107 2.11 105 2.11 106 2.11  65 2.11 122 2.11
 236  0.750  0.750  0.352- 108 2.11 105 2.11 106 2.11  98 2.11 121 2.11
 237  0.625  0.750  0.650- 111 2.11 112 2.11 103 2.11 128 2.11 109 2.14
 238  0.750  0.875  0.650- 112 2.11  72 2.11 127 2.11 111 2.11 110 2.14
 239  0.625  0.875  0.549- 111 2.10 109 2.11  69 2.11 126 2.11 107 2.11 110 2.11
 240  0.750  0.750  0.549- 112 2.10 110 2.11 125 2.11 108 2.11 102 2.11 109 2.11
 241  0.875  0.500  0.451- 113 2.11  91 2.11 100 2.11  52 2.11 115 2.11 117 2.11
 242  0.500  0.625  0.451- 114 2.11  99 2.11  51 2.11 116 2.11 124 2.11 118 2.12
 243  0.875  0.625  0.352- 115 2.11  98 2.11 113 2.11  50 2.11 121 2.11
 244  0.500  0.500  0.352- 116 2.11  90 2.11  97 2.11 114 2.11  49 2.11
 245  0.875  0.500  0.650-  56 2.11 119 2.11 104 2.11  95 2.11 117 2.14
 246  0.500  0.626  0.651- 128 2.10 103 2.12  55 2.12 120 2.14 118 2.16
 247  0.875  0.625  0.549- 119 2.10  54 2.11 115 2.11 125 2.11 102 2.11 117 2.11
 248  0.500  0.501  0.550- 118 2.09  53 2.10 101 2.10 116 2.12  94 2.12 120 2.14
 249  0.875  0.750  0.451- 121 2.11 108 2.11 115 2.11  60 2.11 123 2.11 125 2.11
 250  0.500  0.875  0.451- 122 2.11  84 2.11 107 2.11  59 2.11 124 2.11 126 2.12
 251  0.875  0.875  0.352- 123 2.11  81 2.11 106 2.11 121 2.11  58 2.11
 252  0.500  0.750  0.352- 124 2.11 105 2.11 114 2.11 122 2.11  57 2.11
 253  0.875  0.750  0.650-  64 2.11 127 2.11 112 2.11 119 2.11 125 2.14
 254  0.500  0.875  0.650- 128 2.11  88 2.11  63 2.11 111 2.11 126 2.14
 255  0.875  0.875  0.549- 127 2.10  85 2.11  62 2.11 125 2.11 123 2.11 110 2.11
 256  0.500  0.750  0.550- 128 2.09 126 2.11 109 2.11  61 2.11 124 2.11 118 2.12


IMPORTANT INFORMATION: All symmetrisations will be switched off!
NOSYMM: (Re-)initialisation of all symmetry stuff for point group C_1.


----------------------------------------------------------------------------------------

                                     Primitive cell                                     

  volume of cell :    6078.6138

  direct lattice vectors                    reciprocal lattice vectors
    16.881164524  0.000000000  0.000000000     0.059237619  0.000000000  0.000000000
     0.000000000 16.881164524  0.000000000     0.000000000  0.059237619  0.000000000
     0.000000000  0.000000000 21.330436697     0.000000000  0.000000000  0.046881366

  length of vectors
    16.881164524 16.881164524 21.330436697     0.059237619  0.059237619  0.046881366

  position of ions in fractional coordinates (direct lattice)
     0.125000000  0.000000000  0.351610242
     0.250000000  0.125000000  0.351610242
     0.125000000  0.125000000  0.450536747
     0.250000000  0.000000000  0.450536747
     0.124943395  0.999932730  0.549682781
     0.249940047  0.124981930  0.549559326
     0.124909329  0.124819445  0.647725645
     0.249826340  0.999885417  0.647710752
     0.125000000  0.250000000  0.351610242
     0.250000000  0.375000000  0.351610242
     0.125000000  0.375000000  0.450536747
     0.250000000  0.250000000  0.450536747
     0.124975963  0.250008431  0.549645673
     0.250385847  0.374956210  0.549913777
     0.124839384  0.374999508  0.647738270
     0.249861640  0.249645525  0.647291492
     0.375000000  0.000000000  0.351610242
     0.000000000  0.125000000  0.351610242
     0.375000000  0.125000000  0.450536747
     0.000000000  0.000000000  0.450536747
     0.375023842  0.999948640  0.549611160
     0.000009066  0.124936412  0.549668638
     0.374642766  0.124841517  0.647004938
     0.000012448  0.999904702  0.647819373
     0.375000000  0.250000000  0.351610242
     0.000000000  0.375000000  0.351610242
     0.375000000  0.375000000  0.450536747
     0.000000000  0.250000000  0.450536747
     0.375462919  0.250385952  0.550264382
     0.000001359  0.375002872  0.549712399
     0.375274480  0.374521903  0.650677421
     0.000010574  0.249837399  0.647779731
     0.125000000  0.500000000  0.351610242
     0.250000000  0.625000000  0.351610242
     0.125000000  0.625000000  0.450536747
     0.250000000  0.500000000  0.450536747
     0.124927887  0.499996435  0.549596682
     0.249970862  0.625077583  0.549529587
     0.124888723  0.625206380  0.647704019
     0.249836322  0.500400071  0.646928357
     0.125000000  0.750000000  0.351610242
     0.250000000  0.875000000  0.351610242
     0.125000000  0.875000000  0.450536747
     0.250000000  0.750000000  0.450536747
     0.124937543  0.750070397  0.549684606
     0.249956260  0.874990525  0.549670698
     0.124909674  0.874998109  0.647800722
     0.249825067  0.750106841  0.647717456
     0.375000000  0.500000000  0.351610242
     0.000000000  0.625000000  0.351610242
     0.375000000  0.625000000  0.450536747
     0.000000000  0.500000000  0.450536747
     0.375362608  0.499527399  0.550190796
     0.999994421  0.625059052  0.549665252
     0.374608592  0.625144963  0.647242698
     0.000004137  0.500155184  0.647790458
     0.375000000  0.750000000  0.351610242
     0.000000000  0.875000000  0.351610242
     0.375000000  0.875000000  0.450536747
     0.000000000  0.750000000  0.450536747
     0.375017314  0.750040691  0.549639059
     0.999996585  0.875016300  0.549713147
     0.374860714  0.874993168  0.647777499
     0.999996357  0.750124772  0.647799649
     0.625000000  0.000000000  0.351610242
     0.750000000  0.125000000  0.351610242
     0.625000000  0.125000000  0.450536747
     0.750000000  0.000000000  0.450536747
     0.624988927  0.999976177  0.549640359
     0.750016707  0.124938194  0.549561952
     0.625329963  0.124840634  0.647307660
     0.750181792  0.999896443  0.647742862
     0.625000000  0.250000000  0.351610242
     0.750000000  0.375000000  0.351610242
     0.625000000  0.375000000  0.450536747
     0.750000000  0.250000000  0.450536747
     0.624576899  0.250435071  0.550275746
     0.749602952  0.375022678  0.549939945
     0.624607751  0.375486881  0.650713899
     0.750127613  0.249607900  0.647007142
     0.875000000  0.000000000  0.351610242
     0.500000000  0.125000000  0.351610242
     0.875000000  0.125000000  0.450536747
     0.500000000  0.000000000  0.450536747
     0.875063230  0.999945366  0.549685474
     0.500040226  0.125417658  0.549949108
     0.875102448  0.124818827  0.647717710
     0.500004166  0.999837766  0.647735625
     0.875000000  0.250000000  0.351610242
     0.500000000  0.375000000  0.351610242
     0.875000000  0.375000000  0.450536747
     0.500000000  0.250000000  0.450536747
     0.875056810  0.250011635  0.549619527
     0.499988508  0.374889417  0.550767698
     0.875174750  0.374997616  0.647757656
     0.500432438  0.250241566  0.650917147
     0.625000000  0.500000000  0.351610242
     0.750000000  0.625000000  0.351610242
     0.625000000  0.625000000  0.450536747
     0.750000000  0.500000000  0.450536747
     0.624573594  0.499569970  0.550208670
     0.750091646  0.625022749  0.549534496
     0.625437651  0.625152246  0.646888002
     0.750144380  0.500356988  0.647264481
     0.625000000  0.750000000  0.351610242
     0.750000000  0.875000000  0.351610242
     0.625000000  0.875000000  0.450536747
     0.750000000  0.750000000  0.450536747
     0.624998199  0.750073699  0.549595867
     0.750057349  0.875015993  0.549674902
     0.625164954  0.875005910  0.647775718
     0.750200325  0.750114143  0.647704219
     0.875000000  0.500000000  0.351610242
     0.500000000  0.625000000  0.351610242
     0.875000000  0.625000000  0.450536747
     0.500000000  0.500000000  0.450536747
     0.875046732  0.499988034  0.549643089
     0.499965360  0.624608625  0.549897213
     0.875117627  0.625185165  0.647730451
     0.499440475  0.499525806  0.650389760
     0.875000000  0.750000000  0.351610242
     0.500000000  0.875000000  0.351610242
     0.875000000  0.875000000  0.450536747
     0.500000000  0.750000000  0.450536747
     0.875058607  0.750077485  0.549686087
     0.500007214  0.875015497  0.549701292
     0.875101128  0.875018542  0.647810598
     0.500014492  0.750182573  0.647743179
     0.125000000  0.000000000  0.450536747
     0.250000000  0.125000000  0.450536747
     0.125000000  0.125000000  0.351610242
     0.250000000  0.000000000  0.351610242
     0.124859112  0.999815567  0.649891981
     0.249498582  0.124468279  0.649793894
     0.124869499  0.124885231  0.549415657
     0.249900377  0.999866601  0.549431195
     0.125000000  0.250000000  0.450536747
     0.250000000  0.375000000  0.450536747
     0.125000000  0.375000000  0.351610242
     0.250000000  0.250000000  0.351610242
     0.124792210  0.249787272  0.649919888
     0.248941369  0.375087336  0.650913438
     0.124910670  0.375011251  0.549539570
     0.249615822  0.249919575  0.549393761
     0.375000000  0.000000000  0.450536747
     0.000000000  0.125000000  0.450536747
     0.375000000  0.125000000  0.351610242
     0.000000000  0.000000000  0.351610242
     0.374778178  0.999777431  0.649930313
     0.000005653  0.124871906  0.649877922
     0.374917776  0.124591537  0.549324436
     0.000005079  0.999945737  0.549497645
     0.375000000  0.250000000  0.450536747
     0.000000000  0.375000000  0.450536747
     0.375000000  0.375000000  0.351610242
     0.000000000  0.250000000  0.351610242
     0.373554190  0.248521254  0.649380020
     0.000009436  0.374987420  0.650060652
     0.374408893  0.374947331  0.549845297
     0.000004058  0.249987628  0.549493418
     0.125000000  0.500000000  0.450536747
     0.250000000  0.625000000  0.450536747
     0.125000000  0.625000000  0.351610242
     0.250000000  0.500000000  0.351610242
     0.124810960  0.500239996  0.649918274
     0.249484807  0.625497542  0.649756725
     0.124871066  0.625112269  0.549408980
     0.249594317  0.500094265  0.549281099
     0.125000000  0.750000000  0.450536747
     0.250000000  0.875000000  0.450536747
     0.125000000  0.875000000  0.351610242
     0.250000000  0.750000000  0.351610242
     0.124831329  0.750175097  0.649867334
     0.249879390  0.874986478  0.649858132
     0.124939254  0.874993025  0.549446164
     0.249901400  0.750130903  0.549424276
     0.375000000  0.500000000  0.450536747
     0.000000000  0.625000000  0.450536747
     0.375000000  0.625000000  0.351610242
     0.000000000  0.500000000  0.351610242
     0.373479902  0.501444675  0.649238672
     0.000004704  0.625166893  0.649870678
     0.374932551  0.625389543  0.549374550
     0.000000826  0.500016795  0.549526095
     0.375000000  0.750000000  0.450536747
     0.000000000  0.875000000  0.450536747
     0.375000000  0.875000000  0.351610242
     0.000000000  0.750000000  0.351610242
     0.374801318  0.750183149  0.649916405
     0.000004199  0.874996464  0.649888957
     0.374999239  0.874996391  0.549477466
     0.999994245  0.750070109  0.549464828
     0.625000000  0.000000000  0.450536747
     0.750000000  0.125000000  0.450536747
     0.625000000  0.125000000  0.351610242
     0.750000000  0.000000000  0.351610242
     0.625226565  0.999769596  0.649941954
     0.750520844  0.124487125  0.649807462
     0.625092849  0.124600046  0.549389737
     0.750105846  0.999868116  0.549445232
     0.625000000  0.250000000  0.450536747
     0.750000000  0.375000000  0.450536747
     0.625000000  0.375000000  0.351610242
     0.750000000  0.250000000  0.351610242
     0.626474533  0.248573880  0.649376463
     0.751060976  0.374961096  0.650971622
     0.625575928  0.375037926  0.549864062
     0.750388547  0.249922130  0.549343842
     0.875000000  0.000000000  0.450536747
     0.500000000  0.125000000  0.450536747
     0.875000000  0.125000000  0.351610242
     0.500000000  0.000000000  0.351610242
     0.875153755  0.999827787  0.649896496
     0.499936204  0.123908457  0.650868830
     0.875126968  0.124889993  0.549413907
     0.500004211  0.999913586  0.549572728
     0.875000000  0.250000000  0.450536747
     0.500000000  0.375000000  0.450536747
     0.875000000  0.375000000  0.351610242
     0.500000000  0.250000000  0.351610242
     0.875206626  0.249778592  0.649918232
     0.499942459  0.374975268  0.647858748
     0.875087706  0.375007769  0.549553537
     0.500035562  0.249423003  0.549875227
     0.625000000  0.500000000  0.450536747
     0.750000000  0.625000000  0.450536747
     0.625000000  0.625000000  0.351610242
     0.750000000  0.500000000  0.351610242
     0.626396081  0.501534270  0.649253510
     0.750503198  0.625510446  0.649761089
     0.625076117  0.625397642  0.549295695
     0.750397226  0.500083082  0.549374447
     0.625000000  0.750000000  0.450536747
     0.750000000  0.875000000  0.450536747
     0.625000000  0.875000000  0.351610242
     0.750000000  0.750000000  0.351610242
     0.625228404  0.750178502  0.649893646
     0.750141892  0.874996654  0.649872200
     0.625017029  0.875001816  0.549475084
     0.750115750  0.750130261  0.549421376
     0.875000000  0.500000000  0.450536747
     0.500000000  0.625000000  0.450536747
     0.875000000  0.625000000  0.351610242
     0.500000000  0.500000000  0.351610242
     0.875208239  0.500230835  0.649943877
     0.500072220  0.626049128  0.651023398
     0.875135679  0.625110471  0.549422909
     0.499947025  0.500526658  0.549837372
     0.875000000  0.750000000  0.450536747
     0.500000000  0.875000000  0.450536747
     0.875000000  0.875000000  0.351610242
     0.500000000  0.750000000  0.351610242
     0.875175888  0.750182979  0.649874273
     0.500009208  0.874969441  0.650051468
     0.875062935  0.875015051  0.549449202
     0.500008791  0.750062042  0.549553504

  ion indices of the primitive-cell ions
   primitive index   ion index
                 1           1
                 2           2
                 3           3
                 4           4
                 5           5
                 6           6
                 7           7
                 8           8
                 9           9
                10          10
                11          11
                12          12
                13          13
                14          14
                15          15
                16          16
                17          17
                18          18
                19          19
                20          20
                21          21
                22          22
                23          23
                24          24
                25          25
                26          26
                27          27
                28          28
                29          29
                30          30
                31          31
                32          32
                33          33
                34          34
                35          35
                36          36
                37          37
                38          38
                39          39
                40          40
                41          41
                42          42
                43          43
                44          44
                45          45
                46          46
                47          47
                48          48
                49          49
                50          50
                51          51
                52          52
                53          53
                54          54
                55          55
                56          56
                57          57
                58          58
                59          59
                60          60
                61          61
                62          62
                63          63
                64          64
                65          65
                66          66
                67          67
                68          68
                69          69
                70          70
                71          71
                72          72
                73          73
                74          74
                75          75
                76          76
                77          77
                78          78
                79          79
                80          80
                81          81
                82          82
                83          83
                84          84
                85          85
                86          86
                87          87
                88          88
                89          89
                90          90
                91          91
                92          92
                93          93
                94          94
                95          95
                96          96
                97          97
                98          98
                99          99
               100         100
               101         101
               102         102
               103         103
               104         104
               105         105
               106         106
               107         107
               108         108
               109         109
               110         110
               111         111
               112         112
               113         113
               114         114
               115         115
               116         116
               117         117
               118         118
               119         119
               120         120
               121         121
               122         122
               123         123
               124         124
               125         125
               126         126
               127         127
               128         128
               129         129
               130         130
               131         131
               132         132
               133         133
               134         134
               135         135
               136         136
               137         137
               138         138
               139         139
               140         140
               141         141
               142         142
               143         143
               144         144
               145         145
               146         146
               147         147
               148         148
               149         149
               150         150
               151         151
               152         152
               153         153
               154         154
               155         155
               156         156
               157         157
               158         158
               159         159
               160         160
               161         161
               162         162
               163         163
               164         164
               165         165
               166         166
               167         167
               168         168
               169         169
               170         170
               171         171
               172         172
               173         173
               174         174
               175         175
               176         176
               177         177
               178         178
               179         179
               180         180
               181         181
               182         182
               183         183
               184         184
               185         185
               186         186
               187         187
               188         188
               189         189
               190         190
               191         191
               192         192
               193         193
               194         194
               195         195
               196         196
               197         197
               198         198
               199         199
               200         200
               201         201
               202         202
               203         203
               204         204
               205         205
               206         206
               207         207
               208         208
               209         209
               210         210
               211         211
               212         212
               213         213
               214         214
               215         215
               216         216
               217         217
               218         218
               219         219
               220         220
               221         221
               222         222
               223         223
               224         224
               225         225
               226         226
               227         227
               228         228
               229         229
               230         230
               231         231
               232         232
               233         233
               234         234
               235         235
               236         236
               237         237
               238         238
               239         239
               240         240
               241         241
               242         242
               243         243
               244         244
               245         245
               246         246
               247         247
               248         248
               249         249
               250         250
               251         251
               252         252
               253         253
               254         254
               255         255
               256         256

----------------------------------------------------------------------------------------



 KPOINTS: pymatgen v2020.8.13 with grid density = 

Automatic generation of k-mesh.
 Grid dimensions read from file:
 generate k-points for:    1    1    1

 Generating k-lattice:

  Cartesian coordinates                     Fractional coordinates (reciprocal lattice)
     0.059237619  0.000000000  0.000000000     1.000000000  0.000000000  0.000000000
     0.000000000  0.059237619  0.000000000     0.000000000  1.000000000  0.000000000
     0.000000000  0.000000000  0.046881366     0.000000000  0.000000000  1.000000000

  Length of vectors
     0.059237619  0.059237619  0.046881366

  Shift w.r.t. Gamma in fractional coordinates (k-lattice)
     0.000000000  0.000000000  0.000000000

 
 Subroutine IBZKPT returns following result:
 ===========================================
 
 Found      1 irreducible k-points:
 
 Following reciprocal coordinates:
            Coordinates               Weight
  0.000000  0.000000  0.000000      1.000000
 
 Following cartesian coordinates:
            Coordinates               Weight
  0.000000  0.000000  0.000000      1.000000
 


--------------------------------------------------------------------------------------------------------




 Dimension of arrays:
   k-points           NKPTS =      1   k-points in BZ     NKDIM =      1   number of bands    NBANDS=   1088
   number of dos      NEDOS =    301   number of ions     NIONS =    256
   non local maximal  LDIM  =      5   non local SUM 2l+1 LMDIM =     13
   total plane-waves  NPLWV = ******
   max r-space proj   IRMAX =   3760   max aug-charges    IRDMAX=   8434
   dimension x,y,z NGX =   126 NGY =  126 NGZ =  160
   dimension x,y,z NGXF=   252 NGYF=  252 NGZF=  320
   support grid    NGXF=   252 NGYF=  252 NGZF=  320
   ions per type =             128 128
   NGX,Y,Z   is equivalent  to a cutoff of  12.41, 12.41, 12.47 a.u.
   NGXF,Y,Z  is equivalent  to a cutoff of  24.82, 24.82, 24.94 a.u.

 SYSTEM =  MgO-rocksalt                            
 POSCAR =  Mg  O                                   

--------------------------------------------------------------------------------------------------------


  energy-cutoff  :      520.00
  volume of cell :     6078.61
      direct lattice vectors                 reciprocal lattice vectors
    16.881164524  0.000000000  0.000000000     0.059237619  0.000000000  0.000000000
     0.000000000 16.881164524  0.000000000     0.000000000  0.059237619  0.000000000
     0.000000000  0.000000000 21.330436697     0.000000000  0.000000000  0.046881366

  length of vectors
    16.881164524 16.881164524 21.330436697     0.059237619  0.059237619  0.046881366



 k-points in units of 2pi/SCALE and weight: pymatgen v2020.8.13 with grid density = 
   0.00000000  0.00000000  0.00000000       1.000

 k-points in reciprocal lattice and weights: pymatgen v2020.8.13 with grid density = 
   0.00000000  0.00000000  0.00000000       1.000

 position of ions in fractional coordinates (direct lattice) 
   0.12500000  0.00000000  0.35161024
   0.25000000  0.12500000  0.35161024
   0.12500000  0.12500000  0.45053675
   0.25000000  0.00000000  0.45053675
   0.12494340  0.99993273  0.54968278
   0.24994005  0.12498193  0.54955933
   0.12490933  0.12481944  0.64772564
   0.24982634  0.99988542  0.64771075
   0.12500000  0.25000000  0.35161024
   0.25000000  0.37500000  0.35161024
   0.12500000  0.37500000  0.45053675
   0.25000000  0.25000000  0.45053675
   0.12497596  0.25000843  0.54964567
   0.25038585  0.37495621  0.54991378
   0.12483938  0.37499951  0.64773827
   0.24986164  0.24964553  0.64729149
   0.37500000  0.00000000  0.35161024
   0.00000000  0.12500000  0.35161024
   0.37500000  0.12500000  0.45053675
   0.00000000  0.00000000  0.45053675
   0.37502384  0.99994864  0.54961116
   0.00000907  0.12493641  0.54966864
   0.37464277  0.12484152  0.64700494
   0.00001245  0.99990470  0.64781937
   0.37500000  0.25000000  0.35161024
   0.00000000  0.37500000  0.35161024
   0.37500000  0.37500000  0.45053675
   0.00000000  0.25000000  0.45053675
   0.37546292  0.25038595  0.55026438
   0.00000136  0.37500287  0.54971240
   0.37527448  0.37452190  0.65067742
   0.00001057  0.24983740  0.64777973
   0.12500000  0.50000000  0.35161024
   0.25000000  0.62500000  0.35161024
   0.12500000  0.62500000  0.45053675
   0.25000000  0.50000000  0.45053675
   0.12492789  0.49999643  0.54959668
   0.24997086  0.62507758  0.54952959
   0.12488872  0.62520638  0.64770402
   0.24983632  0.50040007  0.64692836
   0.12500000  0.75000000  0.35161024
   0.25000000  0.87500000  0.35161024
   0.12500000  0.87500000  0.45053675
   0.25000000  0.75000000  0.45053675
   0.12493754  0.75007040  0.54968461
   0.24995626  0.87499053  0.54967070
   0.12490967  0.87499811  0.64780072
   0.24982507  0.75010684  0.64771746
   0.37500000  0.50000000  0.35161024
   0.00000000  0.62500000  0.35161024
   0.37500000  0.62500000  0.45053675
   0.00000000  0.50000000  0.45053675
   0.37536261  0.49952740  0.55019080
   0.99999442  0.62505905  0.54966525
   0.37460859  0.62514496  0.64724270
   0.00000414  0.50015518  0.64779046
   0.37500000  0.75000000  0.35161024
   0.00000000  0.87500000  0.35161024
   0.37500000  0.87500000  0.45053675
   0.00000000  0.75000000  0.45053675
   0.37501731  0.75004069  0.54963906
   0.99999659  0.87501630  0.54971315
   0.37486071  0.87499317  0.64777750
   0.99999636  0.75012477  0.64779965
   0.62500000  0.00000000  0.35161024
   0.75000000  0.12500000  0.35161024
   0.62500000  0.12500000  0.45053675
   0.75000000  0.00000000  0.45053675
   0.62498893  0.99997618  0.54964036
   0.75001671  0.12493819  0.54956195
   0.62532996  0.12484063  0.64730766
   0.75018179  0.99989644  0.64774286
   0.62500000  0.25000000  0.35161024
   0.75000000  0.37500000  0.35161024
   0.62500000  0.37500000  0.45053675
   0.75000000  0.25000000  0.45053675
   0.62457690  0.25043507  0.55027575
   0.74960295  0.37502268  0.54993994
   0.62460775  0.37548688  0.65071390
   0.75012761  0.24960790  0.64700714
   0.87500000  0.00000000  0.35161024
   0.50000000  0.12500000  0.35161024
   0.87500000  0.12500000  0.45053675
   0.50000000  0.00000000  0.45053675
   0.87506323  0.99994537  0.54968547
   0.50004023  0.12541766  0.54994911
   0.87510245  0.12481883  0.64771771
   0.50000417  0.99983777  0.64773562
   0.87500000  0.25000000  0.35161024
   0.50000000  0.37500000  0.35161024
   0.87500000  0.37500000  0.45053675
   0.50000000  0.25000000  0.45053675
   0.87505681  0.25001164  0.54961953
   0.49998851  0.37488942  0.55076770
   0.87517475  0.37499762  0.64775766
   0.50043244  0.25024157  0.65091715
   0.62500000  0.50000000  0.35161024
   0.75000000  0.62500000  0.35161024
   0.62500000  0.62500000  0.45053675
   0.75000000  0.50000000  0.45053675
   0.62457359  0.49956997  0.55020867
   0.75009165  0.62502275  0.54953450
   0.62543765  0.62515225  0.64688800
   0.75014438  0.50035699  0.64726448
   0.62500000  0.75000000  0.35161024
   0.75000000  0.87500000  0.35161024
   0.62500000  0.87500000  0.45053675
   0.75000000  0.75000000  0.45053675
   0.62499820  0.75007370  0.54959587
   0.75005735  0.87501599  0.54967490
   0.62516495  0.87500591  0.64777572
   0.75020032  0.75011414  0.64770422
   0.87500000  0.50000000  0.35161024
   0.50000000  0.62500000  0.35161024
   0.87500000  0.62500000  0.45053675
   0.50000000  0.50000000  0.45053675
   0.87504673  0.49998803  0.54964309
   0.49996536  0.62460862  0.54989721
   0.87511763  0.62518517  0.64773045
   0.49944047  0.49952581  0.65038976
   0.87500000  0.75000000  0.35161024
   0.50000000  0.87500000  0.35161024
   0.87500000  0.87500000  0.45053675
   0.50000000  0.75000000  0.45053675
   0.87505861  0.75007748  0.54968609
   0.50000721  0.87501550  0.54970129
   0.87510113  0.87501854  0.64781060
   0.50001449  0.75018257  0.64774318
   0.12500000  0.00000000  0.45053675
   0.25000000  0.12500000  0.45053675
   0.12500000  0.12500000  0.35161024
   0.25000000  0.00000000  0.35161024
   0.12485911  0.99981557  0.64989198
   0.24949858  0.12446828  0.64979389
   0.12486950  0.12488523  0.54941566
   0.24990038  0.99986660  0.54943120
   0.12500000  0.25000000  0.45053675
   0.25000000  0.37500000  0.45053675
   0.12500000  0.37500000  0.35161024
   0.25000000  0.25000000  0.35161024
   0.12479221  0.24978727  0.64991989
   0.24894137  0.37508734  0.65091344
   0.12491067  0.37501125  0.54953957
   0.24961582  0.24991957  0.54939376
   0.37500000  0.00000000  0.45053675
   0.00000000  0.12500000  0.45053675
   0.37500000  0.12500000  0.35161024
   0.00000000  0.00000000  0.35161024
   0.37477818  0.99977743  0.64993031
   0.00000565  0.12487191  0.64987792
   0.37491778  0.12459154  0.54932444
   0.00000508  0.99994574  0.54949765
   0.37500000  0.25000000  0.45053675
   0.00000000  0.37500000  0.45053675
   0.37500000  0.37500000  0.35161024
   0.00000000  0.25000000  0.35161024
   0.37355419  0.24852125  0.64938002
   0.00000944  0.37498742  0.65006065
   0.37440889  0.37494733  0.54984530
   0.00000406  0.24998763  0.54949342
   0.12500000  0.50000000  0.45053675
   0.25000000  0.62500000  0.45053675
   0.12500000  0.62500000  0.35161024
   0.25000000  0.50000000  0.35161024
   0.12481096  0.50024000  0.64991827
   0.24948481  0.62549754  0.64975672
   0.12487107  0.62511227  0.54940898
   0.24959432  0.50009427  0.54928110
   0.12500000  0.75000000  0.45053675
   0.25000000  0.87500000  0.45053675
   0.12500000  0.87500000  0.35161024
   0.25000000  0.75000000  0.35161024
   0.12483133  0.75017510  0.64986733
   0.24987939  0.87498648  0.64985813
   0.12493925  0.87499303  0.54944616
   0.24990140  0.75013090  0.54942428
   0.37500000  0.50000000  0.45053675
   0.00000000  0.62500000  0.45053675
   0.37500000  0.62500000  0.35161024
   0.00000000  0.50000000  0.35161024
   0.37347990  0.50144468  0.64923867
   0.00000470  0.62516689  0.64987068
   0.37493255  0.62538954  0.54937455
   0.00000083  0.50001680  0.54952609
   0.37500000  0.75000000  0.45053675
   0.00000000  0.87500000  0.45053675
   0.37500000  0.87500000  0.35161024
   0.00000000  0.75000000  0.35161024
   0.37480132  0.75018315  0.64991640
   0.00000420  0.87499646  0.64988896
   0.37499924  0.87499639  0.54947747
   0.99999424  0.75007011  0.54946483
   0.62500000  0.00000000  0.45053675
   0.75000000  0.12500000  0.45053675
   0.62500000  0.12500000  0.35161024
   0.75000000  0.00000000  0.35161024
   0.62522656  0.99976960  0.64994195
   0.75052084  0.12448712  0.64980746
   0.62509285  0.12460005  0.54938974
   0.75010585  0.99986812  0.54944523
   0.62500000  0.25000000  0.45053675
   0.75000000  0.37500000  0.45053675
   0.62500000  0.37500000  0.35161024
   0.75000000  0.25000000  0.35161024
   0.62647453  0.24857388  0.64937646
   0.75106098  0.37496110  0.65097162
   0.62557593  0.37503793  0.54986406
   0.75038855  0.24992213  0.54934384
   0.87500000  0.00000000  0.45053675
   0.50000000  0.12500000  0.45053675
   0.87500000  0.12500000  0.35161024
   0.50000000  0.00000000  0.35161024
   0.87515376  0.99982779  0.64989650
   0.49993620  0.12390846  0.65086883
   0.87512697  0.12488999  0.54941391
   0.50000421  0.99991359  0.54957273
   0.87500000  0.25000000  0.45053675
   0.50000000  0.37500000  0.45053675
   0.87500000  0.37500000  0.35161024
   0.50000000  0.25000000  0.35161024
   0.87520663  0.24977859  0.64991823
   0.49994246  0.37497527  0.64785875
   0.87508771  0.37500777  0.54955354
   0.50003556  0.24942300  0.54987523
   0.62500000  0.50000000  0.45053675
   0.75000000  0.62500000  0.45053675
   0.62500000  0.62500000  0.35161024
   0.75000000  0.50000000  0.35161024
   0.62639608  0.50153427  0.64925351
   0.75050320  0.62551045  0.64976109
   0.62507612  0.62539764  0.54929569
   0.75039723  0.50008308  0.54937445
   0.62500000  0.75000000  0.45053675
   0.75000000  0.87500000  0.45053675
   0.62500000  0.87500000  0.35161024
   0.75000000  0.75000000  0.35161024
   0.62522840  0.75017850  0.64989365
   0.75014189  0.87499665  0.64987220
   0.62501703  0.87500182  0.54947508
   0.75011575  0.75013026  0.54942138
   0.87500000  0.50000000  0.45053675
   0.50000000  0.62500000  0.45053675
   0.87500000  0.62500000  0.35161024
   0.50000000  0.50000000  0.35161024
   0.87520824  0.50023083  0.64994388
   0.50007222  0.62604913  0.65102340
   0.87513568  0.62511047  0.54942291
   0.49994702  0.50052666  0.54983737
   0.87500000  0.75000000  0.45053675
   0.50000000  0.87500000  0.45053675
   0.87500000  0.87500000  0.35161024
   0.50000000  0.75000000  0.35161024
   0.87517589  0.75018298  0.64987427
   0.50000921  0.87496944  0.65005147
   0.87506293  0.87501505  0.54944920
   0.50000879  0.75006204  0.54955350

 position of ions in cartesian coordinates  (Angst):
   2.11014557  0.00000000  7.50000000
   4.22029113  2.11014557  7.50000000
   2.11014557  2.11014557  9.61014557
   4.22029113  0.00000000  9.61014557
   2.10919001 16.88002893 11.72497377
   4.21927905  2.10984053 11.72234041
   2.10861494  2.10709758 13.81627086
   4.21735954 16.87923023 13.81595320
   2.11014557  4.22029113  7.50000000
   4.22029113  6.33043670  7.50000000
   2.11014557  6.33043670  9.61014557
   4.22029113  4.22029113  9.61014557
   2.10973980  4.22043346 11.72418223
   4.22680467  6.32969747 11.72990101
   2.10743417  6.33042840 13.81654016
   4.21795545  4.21430718 13.80701019
   6.33043670  0.00000000  7.50000000
   0.00000000  2.11014557  7.50000000
   6.33043670  2.11014557  9.61014557
   0.00000000  0.00000000  9.61014557
   6.33083918 16.88029751 11.72344605
   0.00015304  2.10907213 11.72467209
   6.32440616  2.10747019 13.80089788
   0.00021014 16.87955579 13.81827014
   6.33043670  4.22029113  7.50000000
   0.00000000  6.33043670  7.50000000
   6.33043670  6.33043670  9.61014557
   0.00000000  4.22029113  9.61014557
   6.33825131  4.22680644 11.73737957
   0.00002294  6.33048518 11.72560553
   6.33507024  6.32236586 13.87923353
   0.00017851  4.21754624 13.81742455
   2.11014557  8.44058226  7.50000000
   4.22029113 10.55072783  7.50000000
   2.11014557 10.55072783  9.61014557
   4.22029113  8.44058226  9.61014557
   2.10892821  8.44052208 11.72313724
   4.21979925 10.55203752 11.72170607
   2.10826708 10.55421177 13.81580957
   4.21752806  8.44733593 13.79926437
   2.11014557 12.66087339  7.50000000
   4.22029113 14.77101896  7.50000000
   2.11014557 14.77101896  9.61014557
   4.22029113 12.66087339  9.61014557
   2.10909122 12.66206178 11.72501269
   4.21955275 14.77085902 11.72471604
   2.10862076 14.77098704 13.81787229
   4.21733805 12.66267699 13.81609619
   6.33043670  8.44058226  7.50000000
   0.00000000 10.55072783  7.50000000
   6.33043670 10.55072783  9.61014557
   0.00000000  8.44058226  9.61014557
   6.33655795  8.43260421 11.73580994
  16.88107034 10.55172469 11.72459987
   6.32382927 10.55317496 13.80596940
   0.00006983  8.44320195 13.81765336
   6.33043670 12.66087339  7.50000000
   0.00000000 14.77101896  7.50000000
   6.33043670 14.77101896  9.61014557
   0.00000000 12.66087339  9.61014557
   6.33072898 12.66156031 11.72404116
  16.88110688 14.77129412 11.72562148
   6.32808539 14.77090362 13.81737694
  16.88110303 12.66297970 13.81784940
  10.55072783  0.00000000  7.50000000
  12.66087339  2.11014557  7.50000000
  10.55072783  2.11014557  9.61014557
  12.66087339  0.00000000  9.61014557
  10.55054091 16.88076237 11.72406889
  12.66115543  2.10910220 11.72239643
  10.55629798  2.10745527 13.80735506
  12.66394225 16.87941636 13.81663812
  10.55072783  4.22029113  7.50000000
  12.66087339  6.33043670  7.50000000
  10.55072783  6.33043670  9.61014557
  12.66087339  4.22029113  9.61014557
  10.54358539  4.22763563 11.73762197
  12.65417077  6.33081953 11.73045918
  10.54410620  6.33865581 13.88001164
  12.66302765  4.21367203 13.80094488
  14.77101896  0.00000000  7.50000000
   8.44058226  2.11014557  7.50000000
  14.77101896  2.11014557  9.61014557
   8.44058226  0.00000000  9.61014557
  14.77208635 16.88024223 11.72503120
   8.44126133  2.11719612 11.73065463
  14.77274839  2.10708716 13.81610162
   8.44065259 16.87842583 13.81648374
  14.77101896  4.22029113  7.50000000
   8.44058226  6.33043670  7.50000000
  14.77101896  6.33043670  9.61014557
   8.44058226  4.22029113  9.61014557
  14.77197798  4.22048755 11.72362453
   8.44038827  6.32856993 11.74811552
  14.77396894  6.33039646 13.81695367
   8.44788232  4.22436904 13.88434699
  10.55072783  8.44058226  7.50000000
  12.66087339 10.55072783  7.50000000
  10.55072783 10.55072783  9.61014557
  12.66087339  8.44058226  9.61014557
  10.54352960  8.43332286 11.73619120
  12.66242049 10.55111185 11.72181078
  10.55811589 10.55329792 13.79840357
  12.66331070  8.44660863 13.80643404
  10.55072783 12.66087339  7.50000000
  12.66087339 14.77101896  7.50000000
  10.55072783 14.77101896  9.61014557
  12.66087339 12.66087339  9.61014557
  10.55069743 12.66211751 11.72311985
  12.66184150 14.77128894 11.72480569
  10.55351245 14.77111873 13.81733894
  12.66425511 12.66280027 13.81581384
  14.77101896  8.44058226  7.50000000
   8.44058226 10.55072783  7.50000000
  14.77101896 10.55072783  9.61014557
   8.44058226  8.44058226  9.61014557
  14.77180785  8.44038025 11.72412712
   8.43999751 10.54412096 11.72954768
  14.77300465 10.55385363 13.81637338
   8.43113682  8.43257731 13.87309761
  14.77101896 12.66087339  7.50000000
   8.44058226 14.77101896  7.50000000
  14.77101896 14.77101896  9.61014557
   8.44058226 12.66087339  9.61014557
  14.77200831 12.66218143 11.72504427
   8.44070405 14.77128057 11.72536861
  14.77272612 14.77133197 13.81808296
   8.44082691 12.66395543 13.81664488
   2.11014557  0.00000000  9.61014557
   4.22029113  2.11014557  9.61014557
   2.11014557  2.11014557  7.50000000
   4.22029113  0.00000000  7.50000000
   2.10776721 16.87805107 13.86247977
   4.21182660  2.10116949 13.86038752
   2.10794255  2.10820813 11.71927589
   4.21860937 16.87891259 11.71960733
   2.11014557  4.22029113  9.61014557
   4.22029113  6.33043670  9.61014557
   2.11014557  6.33043670  7.50000000
   4.22029113  4.22029113  7.50000000
   2.10663784  4.21670003 13.86307503
   4.20242021  6.33191102 13.88426788
   2.10863756  6.33062662 11.72191901
   4.21380575  4.21893346 11.71880884
   6.33043670  0.00000000  9.61014557
   0.00000000  2.11014557  9.61014557
   6.33043670  2.11014557  7.50000000
   0.00000000  0.00000000  7.50000000
   6.32669209 16.87740731 13.86329740
   0.00009544  2.10798320 13.86217987
   6.32904866  2.10325024 11.71733011
   0.00008575 16.88024850 11.72102474
   6.33043670  4.22029113  9.61014557
   0.00000000  6.33043670  9.61014557
   6.33043670  6.33043670  7.50000000
   0.00000000  4.22029113  7.50000000
   6.30602975  4.19532817 13.85155940
   0.00015929  6.33022433 13.86607759
   6.32045812  6.32954758 11.72844030
   0.00006850  4.22008227 11.72093457
   2.11014557  8.44058226  9.61014557
   4.22029113 10.55072783  9.61014557
   2.11014557 10.55072783  7.50000000
   4.22029113  8.44058226  7.50000000
   2.10695435  8.44463368 13.86304061
   4.21159408 10.55912692 13.85959469
   2.10796901 10.55262307 11.71913346
   4.21344273  8.44217357 11.71640570
   2.11014557 12.66087339  9.61014557
   4.22029113 14.77101896  9.61014557
   2.11014557 14.77101896  7.50000000
   4.22029113 12.66087339  7.50000000
   2.10729820 12.66382924 13.86195403
   4.21825510 14.77079068 13.86175775
   2.10912009 14.77090122 11.71992663
   4.21862664 12.66308319 11.71945973
   6.33043670  8.44058226  9.61014557
   0.00000000 10.55072783  9.61014557
   6.33043670 10.55072783  7.50000000
   0.00000000  8.44058226  7.50000000
   6.30477568  8.46497006 13.84854440
   0.00007941 10.55354517 13.86202536
   6.32929808 10.55730376 11.71839907
   0.00001394  8.44086579 11.72163158
   6.33043670 12.66087339  9.61014557
   0.00000000 14.77101896  9.61014557
   6.33043670 14.77101896  7.50000000
   0.00000000 12.66087339  7.50000000
   6.32708272 12.66396516 13.86300073
   0.00007089 14.77095927 13.86241526
   6.33042385 14.77095803 11.72059431
  16.88106737 12.66205692 11.72032473
  10.55072783  0.00000000  9.61014557
  12.66087339  2.11014557  9.61014557
  10.55072783  2.11014557  7.50000000
  12.66087339  0.00000000  7.50000000
  10.55455251 16.87727504 13.86354571
  12.66966585  2.10148764 13.86067693
  10.55229522  2.10339388 11.71872301
  12.66266020 16.87893817 11.71990674
  10.55072783  4.22029113  9.61014557
  12.66087339  6.33043670  9.61014557
  10.55072783  6.33043670  7.50000000
  12.66087339  4.22029113  7.50000000
  10.57561966  4.19621656 13.85148354
  12.67878390  6.32977996 13.88550898
  10.56045017  6.33107693 11.72884056
  12.66743251  4.21897659 11.71774404
  14.77101896  0.00000000  9.61014557
   8.44058226  2.11014557  9.61014557
  14.77101896  2.11014557  7.50000000
   8.44058226  0.00000000  7.50000000
  14.77361453 16.87825737 13.86257608
   8.43950531  2.09171906 13.88331637
  14.77316233  2.10828852 11.71923857
   8.44065334 16.87970575 11.72262628
  14.77101896  4.22029113  9.61014557
   8.44058226  6.33043670  9.61014557
  14.77101896  6.33043670  7.50000000
   8.44058226  4.22029113  7.50000000
  14.77450705  4.21655350 13.86303971
   8.43961090  6.33001919 13.81911002
  14.77249954  6.33056785 11.72221693
   8.44118259  4.21055075 11.72907872
  10.55072783  8.44058226  9.61014557
  12.66087339 10.55072783  9.61014557
  10.55072783 10.55072783  7.50000000
  12.66087339  8.44058226  7.50000000
  10.57429530  8.46648252 13.84886090
  12.66936796 10.55934476 13.85968778
  10.55201276 10.55744049 11.71671704
  12.66757903  8.44198478 11.71839687
  10.55072783 12.66087339  9.61014557
  12.66087339 14.77101896  9.61014557
  10.55072783 14.77101896  7.50000000
  12.66087339 12.66087339  7.50000000
  10.55458355 12.66388672 13.86251527
  12.66326869 14.77096248 13.86205782
  10.55101530 14.77104961 11.72054350
  12.66282739 12.66307235 11.71939788
  14.77101896  8.44058226  9.61014557
   8.44058226 10.55072783  9.61014557
  14.77101896 10.55072783  7.50000000
   8.44058226  8.44058226  7.50000000
  14.77453428  8.44447902 13.86358673
   8.44180142 10.56843834 13.88661339
  14.77330937 10.55259271 11.71943057
   8.43968798  8.44947287 11.72827126
  14.77101896 12.66087339  9.61014557
   8.44058226 14.77101896  9.61014557
  14.77101896 14.77101896  7.50000000
   8.44058226 12.66087339  7.50000000
  14.77398816 12.66396229 13.86210204
   8.44073771 14.77050308 13.86588169
  14.77208137 14.77127304 11.71999142
   8.44073067 12.66192073 11.72221622



--------------------------------------------------------------------------------------------------------


--------------------------------------- Iteration      FINAL  ---------------------------------------


--------------------OUTCAR has been truncated-------------------------


--------------------OUTCAR has been truncated-------------------------


--------------------OUTCAR has been truncated-------------------------


--------------------OUTCAR has been truncated-------------------------


--------------------OUTCAR has been truncated-------------------------


--------------------OUTCAR has been truncated-------------------------


--------------------OUTCAR has been truncated-------------------------


--------------------OUTCAR has been truncated-------------------------


--------------------OUTCAR has been truncated-------------------------


--------------------OUTCAR has been truncated-------------------------


  DFT-D2 method for vdW energy calculation
  -------------------------------------------------------------------

  Parameters of vdW forcefield:
         C6(Jnm^6/mol)     R0(A)
   -----------------------------
   Mg       0.630          1.243
   O        0.700          1.342

  vdW correction parametrized for the method pbe       

  IVDW =   1
  VDW_RADIUS =    50.000 A
  VDW_S6 =     0.750
  VDW_SR =     1.000
  VDW_D =    20.000
  LVDW_EWALD = F

  Number of pair interactions contributing to vdW energy: 2859915
  Edisp (eV):  -14.53850
    FORVDW:  cpu time      0.7412: real time      0.7415

  FORCE on cell =-STRESS in cart. coord.  units (eV):
  Direction    XX          YY          ZZ          XY          YZ          ZX
  --------------------------------------------------------------------------------------
  Alpha Z  3501.42050  3501.42050  3501.42050
  Ewald  647164.15855647164.18150************    -0.01210     0.02833    -0.00517
  Hartree687425.90238687425.90617************    -0.00705     0.02187    -0.01471
  E(xc)   -9827.59380 -9827.59390 -9848.32534    -0.00002    -0.00015    -0.00011
  Local  ************************************     0.01917    -0.04471     0.02519
  n-local-11239.27553-11239.25254-11319.31598    -0.00068    -0.00747    -0.00254
  augment  4189.30328  4189.30067  4153.00445    -0.00036    -0.00115    -0.00130
  Kinetic 29210.00865 29210.00811 29377.52876     0.00003     0.01040     0.00427
  Fock        0.00000     0.00000     0.00000     0.00000     0.00000     0.00000
  vdW       -21.22315   -21.22311   -17.29008     0.00000    -0.00012    -0.00008
  -------------------------------------------------------------------------------------
  Total     -82.89068   -82.86928    21.72490    -0.00101     0.00700     0.00554
  in kB     -21.84800   -21.84236     5.72617    -0.00027     0.00185     0.00146
  external pressure =      -12.65 kB  Pullay stress =        0.00 kB


 VOLUME and BASIS-vectors are now :
 -----------------------------------------------------------------------------
  energy-cutoff  :      520.00
  volume of cell :     6078.61
      direct lattice vectors                 reciprocal lattice vectors
    16.881164524  0.000000000  0.000000000     0.059237619  0.000000000  0.000000000
     0.000000000 16.881164524  0.000000000     0.000000000  0.059237619  0.000000000
     0.000000000  0.000000000 21.330436697     0.000000000  0.000000000  0.046881366

  length of vectors
    16.881164524 16.881164524 21.330436697     0.059237619  0.059237619  0.046881366


 FORCES acting on ions:
    Electron-Ion                     Ewald-Force                    Non-Local-Force
 -----------------------------------------------------------------------------------------------
   -.317E+00 -.349E+00 0.207E+04   0.307E+00 0.338E+00 -.206E+04   0.774E-02 0.823E-02 -.705E+01
   -.784E+00 -.796E+00 0.207E+04   0.773E+00 0.785E+00 -.206E+04   0.881E-02 0.893E-02 -.703E+01
   -.692E+00 -.962E+00 0.688E+03   0.652E+00 0.932E+00 -.688E+03   0.293E-01 0.224E-01 0.373E+00
   -.898E+00 -.750E+00 0.688E+03   0.867E+00 0.709E+00 -.688E+03   0.232E-01 0.309E-01 0.374E+00
   -.706E+00 -.760E+00 -.690E+03   0.687E+00 0.737E+00 0.690E+03   0.164E-01 0.196E-01 -.288E+00
   -.174E+01 -.181E+01 -.687E+03   0.161E+01 0.170E+01 0.688E+03   0.911E-01 0.686E-01 -.238E+00
   0.990E-01 -.126E+01 -.206E+04   -.809E-01 0.126E+01 0.205E+04   -.397E-01 -.558E-02 0.615E+01
   -.131E+01 0.598E-01 -.206E+04   0.133E+01 -.416E-01 0.205E+04   -.840E-02 -.391E-01 0.615E+01
   -.598E+00 -.455E+00 0.207E+04   0.588E+00 0.448E+00 -.206E+04   0.730E-02 0.565E-02 -.704E+01
   -.116E+01 0.535E-01 0.207E+04   0.115E+01 -.536E-01 -.206E+04   0.838E-02 -.353E-04 -.704E+01
   -.152E+01 0.132E+00 0.686E+03   0.153E+01 -.133E+00 -.687E+03   -.173E-02 0.870E-03 0.419E+00
   -.294E+01 -.158E+01 0.686E+03   0.293E+01 0.159E+01 -.686E+03   0.121E-01 -.877E-02 0.415E+00
   -.485E+00 -.147E+01 -.689E+03   0.448E+00 0.146E+01 0.690E+03   -.294E-02 -.524E-02 -.286E+00
   -.244E+01 0.810E-01 -.696E+03   0.256E+01 -.108E+00 0.696E+03   -.209E+00 0.280E-01 0.170E-02
   0.190E+00 -.112E+00 -.206E+04   -.157E+00 0.127E+00 0.205E+04   -.777E-01 -.830E-02 0.605E+01
   0.110E+01 -.348E+01 -.205E+04   -.138E+01 0.330E+01 0.204E+04   0.860E-01 0.169E+00 0.612E+01
   -.483E+00 -.638E+00 0.207E+04   0.476E+00 0.628E+00 -.206E+04   0.556E-02 0.792E-02 -.704E+01
[...]
      2.10909     12.66206     11.72501        -0.004278      0.002353      0.037958
      4.21955     14.77086     11.72472        -0.003629      0.000879      0.043546
      2.10862     14.77099     13.81787         0.001993     -0.000699      0.034743
      4.21734     12.66268     13.81610         0.001962      0.017693      0.042543
      6.33044      8.44058      7.50000        -0.001538      0.001578      0.346656
      0.00000     10.55073      7.50000        -0.000061      0.002932      0.351529
      6.33044     10.55073      9.61015         0.004336     -0.001618      0.004872
      0.00000      8.44058      9.61015        -0.001367      0.004814      0.008113
      6.33656      8.43260     11.73581        -0.057881      0.063392     -0.107817
     16.88107     10.55172     11.72460         0.000339      0.005011      0.046609
      6.32383     10.55317     13.80597        -0.002802      0.176567      0.111688
      0.00007      8.44320     13.81765         0.002971     -0.004110      0.047539
      6.33044     12.66087      7.50000        -0.001816      0.002298      0.349884
      0.00000     14.77102      7.50000        -0.000009     -0.000133      0.352500
      6.33044     14.77102      9.61015        -0.004814     -0.001498      0.007814
      0.00000     12.66087      9.61015        -0.000075      0.004324      0.010065
      6.33073     12.66156     11.72404        -0.008150      0.033353      0.050936
     16.88111     14.77129     11.72562         0.000519     -0.002537      0.035676
      6.32809     14.77090     13.81738         0.004775     -0.001328      0.046696
     16.88110     12.66298     13.81785         0.000186     -0.004296      0.034900
     10.55073      0.00000      7.50000         0.001675     -0.002169      0.349199
     12.66087      2.11015      7.50000         0.002521     -0.002406      0.347290
     10.55073      2.11015      9.61015        -0.004564      0.004085      0.004503
     12.66087      0.00000      9.61015         0.007341     -0.010368      0.006610
     10.55054     16.88076     11.72407         0.011860     -0.037933      0.049329
     12.66116      2.10910     11.72240         0.038398     -0.038402      0.033094
     10.55630      2.10746     13.80736         0.026022     -0.179972      0.098728
     12.66394     16.87942     13.81664         0.000989     -0.020190      0.041583
     10.55073      4.22029      7.50000         0.001551     -0.001279      0.347349
     12.66087      6.33044      7.50000         0.002398      0.000030      0.349669
     10.55073      6.33044      9.61015         0.000485     -0.000503      0.008728
     12.66087      4.22029      9.61015        -0.003919      0.004996      0.003542
     10.54359      4.22764     11.73762         0.058440     -0.057002     -0.113437
     12.65417      6.33082     11.73046         0.084249      0.003028      0.020463
     10.54411      6.33866     13.88001         0.381968     -0.041060     -0.505357
     12.66303      4.21367     13.80094         0.173249      0.001361      0.152910
     14.77102      0.00000      7.50000         0.002176     -0.002343      0.351755
      8.44058      2.11015      7.50000         0.000067     -0.002193      0.349279
     14.77102      2.11015      9.61015         0.009389     -0.007447      0.006466
      8.44058      0.00000      9.61015         0.000750      0.006495      0.014598
     14.77209     16.88024     11.72503         0.002499     -0.003745      0.040125
      8.44126      2.11720     11.73065         0.000107     -0.084006      0.012016
     14.77275      2.10709     13.81610         0.020402      0.002596      0.045332
      8.44065     16.87843     13.81648        -0.004113     -0.052072      0.088580
     14.77102      4.22029      7.50000         0.001976     -0.001387      0.349332
      8.44058      6.33044      7.50000         0.000061     -0.000125      0.342864
     14.77102      6.33044      9.61015        -0.006253      0.000955      0.015534
      8.44058      4.22029      9.61015         0.001145     -0.001193      0.007145
     14.77198      4.22049     11.72362         0.038039     -0.010192      0.051879
      8.44039      6.32857     11.74812         0.000465      0.004124     -0.320871
     14.77397      6.33040     13.81695         0.041228     -0.002489      0.087400
      8.44788      4.22437     13.88435        -0.043911     -0.359848     -0.531217
     10.55073      8.44058      7.50000         0.001591      0.001555      0.346787
     12.66087     10.55073      7.50000         0.002767      0.002907      0.347475
     10.55073     10.55073      9.61015        -0.003861     -0.001976      0.001646
     12.66087      8.44058      9.61015        -0.001935     -0.004948      0.004407
     10.54353      8.43332     11.73619         0.058812      0.062133     -0.106920
     12.66242     10.55111     11.72181         0.034702      0.037237      0.035764
     10.55812     10.55330     13.79840        -0.013026      0.165691      0.170572
     12.66331      8.44661     13.80643         0.174003      0.017192      0.107239
     10.55073     12.66087      7.50000         0.001805      0.002338      0.349583
     12.66087     14.77102      7.50000         0.002755     -0.000196      0.351964
     10.55073     14.77102      9.61015         0.005305      0.000913      0.007443
     12.66087     12.66087      9.61015         0.008253      0.010318      0.007500
     10.55070     12.66212     11.72312         0.008876      0.034619      0.055400
     12.66184     14.77129     11.72481         0.003400     -0.001594      0.043476
     10.55351     14.77112     13.81734        -0.005896     -0.008668      0.046864
     12.66426     12.66280     13.81581        -0.006609      0.016569      0.046468
     14.77102      8.44058      7.50000         0.002148      0.001814      0.349436
      8.44058     10.55073      7.50000         0.000002      0.002671      0.349243
     14.77102     10.55073      9.61015         0.010474      0.007817      0.006274
      8.44058      8.44058      9.61015        -0.000897     -0.001740      0.007318
     14.77181      8.44038     11.72413         0.033277      0.011043      0.050722
      8.44000     10.54412     11.72955        -0.000695      0.085674      0.031675
     14.77300     10.55385     13.81637         0.017562      0.001030      0.041581
      8.43114      8.43258     13.87310         0.057126      0.406370     -0.462772
     14.77102     12.66087      7.50000         0.002111      0.002300      0.352319
      8.44058     14.77102      7.50000         0.000004     -0.000093      0.348700
     14.77102     14.77102      9.61015         0.003560     -0.000280      0.009230
      8.44058     12.66087      9.61015        -0.000746     -0.005483      0.015640
     14.77201     12.66218     11.72504         0.004815      0.001892      0.038625
      8.44070     14.77128     11.72537        -0.000167     -0.005604      0.054944
     14.77273     14.77133     13.81808        -0.001957     -0.002082      0.034115
      8.44083     12.66396     13.81664         0.004051      0.028791      0.090416
      2.11015      0.00000      9.61015         0.002016      0.001379      0.016996
      4.22029      2.11015      9.61015         0.003255      0.002291      0.025383
      2.11015      2.11015      7.50000        -0.000124     -0.000106     -0.518408
      4.22029      0.00000      7.50000         0.003117      0.003473     -0.519028
      2.10777     16.87805     13.86248         0.008008      0.009759      0.076268
      4.21183      2.10117     13.86039         0.061325      0.065746      0.050800
      2.10794      2.10821     11.71928         0.018612      0.013436     -0.028562
      4.21861     16.87891     11.71961         0.011942      0.019629     -0.031679
      2.11015      4.22029      9.61015        -0.001873      0.002858      0.021570
      4.22029      6.33044      9.61015         0.010297      0.000510      0.043981
      2.11015      6.33044      7.50000        -0.001375      0.003312     -0.517460
      4.22029      4.22029      7.50000         0.002900      0.000709     -0.518926
      2.10664      4.21670     13.86308         0.032312      0.007290      0.050636
      4.20242      6.33191     13.88427         0.284169     -0.022426      0.021562
      2.10864      6.33063     11.72192         0.041290     -0.002084     -0.024779
      4.21381      4.21893     11.71881         0.089229      0.021790      0.014986
      6.33044      0.00000      9.61015         0.002157     -0.000969      0.020186
      0.00000      2.11015      9.61015         0.000076      0.004448      0.017268
      6.33044      2.11015      7.50000         0.003852     -0.000473     -0.516832
      0.00000      0.00000      7.50000         0.000016      0.002456     -0.524424
      6.32669     16.87741     13.86330         0.009870      0.031788      0.042255
      0.00010      2.10798     13.86218         0.001434     -0.000920      0.075623
      6.32905      2.10325     11.71733         0.026379      0.088391      0.015253
      0.00009     16.88025     11.72102        -0.000281      0.004429     -0.026021
      6.33044      4.22029      9.61015         0.016116      0.011765      0.079887
      0.00000      6.33044      9.61015        -0.000153     -0.000863      0.028520
      6.33044      6.33044      7.50000         0.006140      0.003471     -0.516149
      0.00000      4.22029      7.50000        -0.000007      0.002130     -0.519094
      6.30603      4.19533     13.85156         0.344379      0.329597      0.341299
      0.00016      6.33022     13.86608        -0.000195     -0.001881      0.052015
      6.32046      6.32955     11.72844         0.126406     -0.002827      0.137797
      0.00007      4.22008     11.72093         0.001277      0.004374     -0.036609
      2.11015      8.44058      9.61015        -0.001936     -0.002976      0.018335
      4.22029     10.55073      9.61015         0.004220     -0.004289      0.022272
      2.11015     10.55073      7.50000        -0.000045     -0.006467     -0.518458
      4.22029      8.44058      7.50000         0.002886     -0.000711     -0.517457
      2.10695      8.44463     13.86304         0.027382     -0.009579      0.039664
      4.21159     10.55913     13.85959         0.062749     -0.058943      0.048520
      2.10797     10.55262     11.71913         0.016915     -0.012266     -0.030414
      4.21344      8.44217     11.71641         0.086679     -0.025637      0.012486
      2.11015     12.66087      9.61015        -0.000971     -0.000815      0.015571
      4.22029     14.77102      9.61015         0.003824      0.002627      0.016270
      2.11015     14.77102      7.50000        -0.001118      0.003602     -0.520744
      4.22029     12.66087      7.50000         0.003044     -0.003065     -0.520788
      2.10730     12.66383     13.86195         0.007888     -0.007281      0.077176
      4.21826     14.77079     13.86176        -0.002539      0.001961      0.075582
      2.10912     14.77090     11.71993         0.004568      0.002299     -0.027083
      4.21863     12.66308     11.71946         0.010350     -0.016535     -0.032213
      6.33044      8.44058      9.61015         0.010875     -0.014566      0.076365
      0.00000     10.55073      9.61015        -0.000056     -0.002683      0.016772
      6.33044     10.55073      7.50000         0.003974     -0.006463     -0.516798
      0.00000      8.44058      7.50000         0.000119     -0.002169     -0.522427
      6.30478      8.46497     13.84854         0.334622     -0.349690      0.339832
      0.00008     10.55355     13.86203        -0.001044      0.001462      0.076388
      6.32930     10.55730     11.71840         0.018456     -0.087967      0.009275
      0.00001      8.44087     11.72163        -0.001464     -0.005583     -0.035791
      6.33044     12.66087      9.61015         0.005073      0.000819      0.019609
      0.00000     14.77102      9.61015        -0.000047      0.000075      0.017876
      6.33044     14.77102      7.50000         0.005484      0.003652     -0.518593
      0.00000     12.66087      7.50000         0.000046     -0.002042     -0.521442
      6.32708     12.66397     13.86300         0.003382     -0.025808      0.048385
      0.00007     14.77096     13.86242         0.000000     -0.000772      0.082087
      6.33042     14.77096     11.72059         0.004828      0.001356     -0.037019
     16.88107     12.66206     11.72032         0.000303     -0.004738     -0.027883
     10.55073      0.00000      9.61015        -0.001494      0.000396      0.021779
     12.66087      2.11015      9.61015        -0.004360      0.001041      0.025623
     10.55073      2.11015      7.50000        -0.003866     -0.000317     -0.516858
     12.66087      0.00000      7.50000        -0.003015      0.003439     -0.519117
     10.55455     16.87728     13.86355        -0.010555      0.036596      0.051317
     12.66967      2.10149     13.86068        -0.068130      0.059096      0.050050
     10.55230      2.10339     11.71872        -0.025892      0.087712      0.016036
     12.66266     16.87894     11.71991        -0.012752      0.019265     -0.031777
     10.55073      4.22029      9.61015        -0.015008      0.013378      0.080753
     12.66087      6.33044      9.61015        -0.010728      0.001991      0.045582
     10.55073      6.33044      7.50000        -0.006270      0.003442     -0.516280
     12.66087      4.22029      7.50000        -0.002701      0.000603     -0.518940
     10.57562      4.19622     13.85148        -0.342961      0.335213      0.342940
     12.67878      6.32978     13.88551        -0.287075      0.016341      0.016620
     10.56045      6.33108     11.72884        -0.127017     -0.005234      0.136943
     12.66743      4.21898     11.71774        -0.089931      0.022511      0.012625
     14.77102      0.00000      9.61015        -0.002089      0.001596      0.017089
      8.44058      2.11015      9.61015         0.000954      0.011948      0.047189
     14.77102      2.11015      7.50000         0.000136     -0.000001     -0.518320
      8.44058      0.00000      7.50000        -0.000069      0.002014     -0.521296
     14.77361     16.87826     13.86258        -0.008175      0.008819      0.076542
      8.43951      2.09172     13.88332         0.018251      0.288358      0.036486
     14.77316      2.10829     11.71924        -0.018448      0.012445     -0.029182
      8.44065     16.87971     11.72263         0.000404      0.043995     -0.021405
     14.77102      4.22029      9.61015         0.003193      0.003181      0.020437
      8.44058      6.33044      9.61015        -0.000141     -0.003485      0.133043
     14.77102      6.33044      7.50000         0.001487      0.003118     -0.517534
      8.44058      4.22029      7.50000        -0.000052      0.002959     -0.517163
     14.77451      4.21655     13.86304        -0.026909      0.007220      0.041062
      8.43961      6.33002     13.81911         0.003088     -0.006006      0.843528
     14.77250      6.33057     11.72222        -0.041085     -0.001251     -0.026096
      8.44118      4.21055     11.72908        -0.000958      0.123652      0.140937
     10.55073      8.44058      9.61015        -0.012489     -0.013543      0.077389
     12.66087     10.55073      9.61015        -0.002228     -0.006026      0.022812
     10.55073     10.55073      7.50000        -0.003999     -0.006156     -0.516788
     12.66087      8.44058      7.50000        -0.003049     -0.000616     -0.517592
     10.57430      8.46648     13.84886        -0.335119     -0.353832      0.336820
     12.66937     10.55934     13.85969        -0.055901     -0.064886      0.048000
     10.55201     10.55744     11.71672        -0.021069     -0.088108      0.008334
     12.66758      8.44198     11.71840        -0.085790     -0.023881      0.011452
     10.55073     12.66087      9.61015        -0.004738      0.002459      0.017446
     12.66087     14.77102      9.61015        -0.003454      0.003083      0.016430
     10.55073     14.77102      7.50000        -0.005475      0.003521     -0.518574
     12.66087     12.66087      7.50000        -0.003185     -0.003089     -0.520633
     10.55458     12.66389     13.86252        -0.004280     -0.021596      0.038067
     12.66327     14.77096     13.86206         0.001591      0.004220      0.074642
     10.55102     14.77105     11.72054        -0.005121      0.004234     -0.036780
     12.66283     12.66307     11.71940        -0.010942     -0.017100     -0.032682
     14.77102      8.44058      9.61015         0.000387     -0.002842      0.021081
      8.44058     10.55073      9.61015        -0.000887     -0.010469      0.043189
     14.77102     10.55073      7.50000         0.000146     -0.006279     -0.518605
      8.44058      8.44058      7.50000        -0.000092     -0.002960     -0.519960
     14.77453      8.44448     13.86359        -0.031099     -0.009413      0.048469
      8.44180     10.56844     13.88661        -0.023970     -0.283022     -0.010107
     14.77331     10.55259     11.71943        -0.016352     -0.013064     -0.031235
      8.43969      8.44947     11.72827         0.000935     -0.131894      0.133919
     14.77102     12.66087      9.61015         0.001260     -0.000761      0.015689
      8.44058     14.77102      9.61015         0.000310     -0.000462      0.027690
     14.77102     14.77102      7.50000         0.001156      0.003564     -0.520766
      8.44058     12.66087      7.50000         0.000130     -0.001802     -0.518264
     14.77399     12.66396     13.86210        -0.007621     -0.008553      0.076657
      8.44074     14.77050     13.86588        -0.000212      0.004645      0.051676
     14.77208     14.77127     11.71999        -0.003917      0.000139     -0.027295
      8.44073     12.66192     11.72222        -0.000799     -0.035481     -0.029660
 -----------------------------------------------------------------------------------
    total drift:                               -0.001321     -0.022393      0.053185


--------------------------------------------------------------------------------------------------------



  FREE ENERGIE OF THE ION-ELECTRON SYSTEM (eV)
  ---------------------------------------------------
  free  energy   TOTEN  =     -1502.55216690 eV

  energy  without entropy=    -1502.55216690  energy(sigma->0) =    -1502.55216690



--------------------------------------------------------------------------------------------------------


    POTLOK:  cpu time      0.2949: real time      0.2949


--------------------------------------------------------------------------------------------------------


     LOOP+:  cpu time     94.8762: real time     95.2104
    4ORBIT:  cpu time      0.0000: real time      0.0000

 total amount of memory used by VASP MPI-rank0    75625. kBytes
=======================================================================

   base      :      30000. kBytes
   nonlr-proj:      10174. kBytes
   fftplans  :       9341. kBytes
   grid      :      17470. kBytes
   one-center:        129. kBytes
   wavefun   :       8511. kBytes

  
  
 General timing and accounting informations for this job:
 ========================================================
  
                  Total CPU time used (sec):      131.629
                            User time (sec):      128.901
                          System time (sec):        2.728
                         Elapsed time (sec):      144.206
  
                   Maximum memory used (kb):      228588.
                   Average memory used (kb):          N/A
  
                          Minor page faults:       277988
                          Major page faults:            0
                 Voluntary context switches:        12575
