 **********************************************************************
                          MRCC program system
 **********************************************************************
 
                              Written by
     Mihaly Kallay, Peter R. Nagy, David Mester, Laszlo Gyevi-Nagy,
        Jozsef Csoka, P. Bernat Szabo, Zoltan Rolik, Gyula Samu,
     Jozsef Csontos, Bence Hegely, Adam Ganyecz, Istvan Ladjanszki,
       Lorant Szegedy, Bence Ladoczki, Klara Petrov, Mate Farkas,
                    Pal D. Mezei, and Reka A. Horvath
 
        Department of Physical Chemistry and Materials Science
            Budapest University of Technology and Economics
                  Budapest P.O.Box 91, H-1521 Hungary
 
                              www.mrcc.hu
 
                      Release date: March 18, 2022

 ************************ 2023-04-16 15:58:32 *************************
 Executing minp...

 Reading input from MINP...
 
 Input file:
 
calc=DF-CCSD(T)
scftype=rhf
verbosity=3
mem=220GB
symm=off
unit=angs
scfiguess=small
scfmaxit=1000
scfalg=locfit1


ccmaxit=400
ccsdalg=dfdirect
ccsdthreads=4
ccsdmkl=thr
ptthreads=4

charge=-6
core=17

basis=special
aug-cc-pVTZ
aug-cc-pVTZ
aug-cc-pVTZ
cc-pVTZ
aug-cc-pVTZ
aug-cc-pVTZ
aug-cc-pVTZ
aug-cc-pVTZ
aug-cc-pVTZ
nothing
nothing
nothing
nothing
nothing
nothing
nothing
nothing
nothing
nothing
nothing
nothing
nothing
nothing
nothing
nothing
nothing
nothing
nothing
nothing
nothing
nothing
nothing
nothing
nothing
nothing
nothing
nothing
nothing
nothing
nothing
nothing
nothing
nothing
nothing
nothing
nothing
nothing
nothing

basis_sm=special
def2-SVP
def2-SVP
def2-SVP
def2-SVP
def2-SVP
def2-SVP
def2-SVP
def2-SVP
def2-SVP
nothing
nothing
nothing
nothing
nothing
nothing
nothing
nothing
nothing
nothing
nothing
nothing
nothing
nothing
nothing
nothing
nothing
nothing
nothing
nothing
nothing
nothing
nothing
nothing
nothing
nothing
nothing
nothing
nothing
nothing
nothing
nothing
nothing
nothing
nothing
nothing
nothing
nothing
nothing

dfbasis_scf=special
def2-QZVPP-RI-JK
def2-QZVPP-RI-JK
def2-QZVPP-RI-JK
def2-QZVPP-RI-JK
def2-QZVPP-RI-JK
def2-QZVPP-RI-JK
def2-QZVPP-RI-JK
def2-QZVPP-RI-JK
def2-QZVPP-RI-JK
nothing
nothing
nothing
nothing
nothing
nothing
nothing
nothing
nothing
nothing
nothing
nothing
nothing
nothing
nothing
nothing
nothing
nothing
nothing
nothing
nothing
nothing
nothing
nothing
nothing
nothing
nothing
nothing
nothing
nothing
nothing
nothing
nothing
nothing
nothing
nothing
nothing
nothing
nothing

dfbasis_cor=special
aug-cc-pVTZ-RI
aug-cc-pVTZ-RI
aug-cc-pVTZ-RI
cc-pVTZ-RI
aug-cc-pVTZ-RI
aug-cc-pVTZ-RI
aug-cc-pVTZ-RI
aug-cc-pVTZ-RI
aug-cc-pVTZ-RI
nothing
nothing
nothing
nothing
nothing
nothing
nothing
nothing
nothing
nothing
nothing
nothing
nothing
nothing
nothing
nothing
nothing
nothing
nothing
nothing
nothing
nothing
nothing
nothing
nothing
nothing
nothing
nothing
nothing
nothing
nothing
nothing
nothing
nothing
nothing
nothing
nothing
nothing
nothing

ecp=special
none
none
none
none
none
none
none
none
none
ECP-22
ECP-22
ECP-22
ECP-22
ECP-22
ECP-22
ECP-22
ECP-22
ECP-22
ECP-22
ECP-22
ECP-22
ECP-22
ECP-22
ECP-22
ECP-22
ECP-22
ECP-22
ECP-22
ECP-22
ECP-22
ECP-22
ECP-22
ECP-22
ECP-22
ECP-22
ECP-22
ECP-22
ECP-22
ECP-22
ECP-22
ECP-22
ECP-22
ECP-22
ECP-22
ECP-22
ECP-22
ECP-22
ECP-22

unit=angs
geom=xyz
48
C1 O2 Ti1 O5 ECP39
C    -1.01683518485   -0.00000030583    1.90546460536
O    -1.80953834777   -0.00000037714    2.76653097625
O    -0.17108919829   -0.00000034254    1.07494461473
Ti    0.00000000000    0.00000000000   -1.41801341075
O     0.00917387515    0.00000023180   -3.25021027291
O     1.23187968520    1.48862581274   -1.15872226880
O     1.23187969997   -1.48862553529   -1.15872236450
O    -1.22651950606    1.49803399711   -1.18432811652
O    -1.22651946164   -1.49803373797   -1.18432855993
Ti    0.00942669232    2.95822490509   -1.47419934065
Ti    0.00942699220   -2.95822496193   -1.47419912357
Ti    0.00797518220    1.47099970214   -4.62445999936
Ti    0.00797636162   -1.47099966467   -4.62445951275
Ti   -3.25056609638    1.48259525187   -1.10288625784
Ti   -3.25056594052   -1.48259514463   -1.10288668455
Ti    3.25507191116    1.47914431705   -1.08820526196
Ti    3.25507192585   -1.47914411459   -1.08820528750
Ti   -3.24497405356    0.00000033637   -4.44445972265
Ti    3.25982517478    0.00000013511   -4.43770404659
Ti   -3.24409652719    2.95901084198   -4.44277198118
Ti   -3.24409450759   -2.95901049211   -4.44277217501
Ti    3.25898063114    2.95725701391   -4.43853369495
Ti    3.25898254229   -2.95725644651   -4.43853374974
Ti    0.00893755042    4.43282230050   -4.65081942284
Ti    0.00893927712   -4.43282224137   -4.65081922651
Ti   -3.23930369393    4.43690955113   -1.08503148174
Ti   -3.23930375410   -4.43690939638   -1.08503143440
Ti    3.25617686298    4.43694585418   -1.08642819599
Ti    3.25617706333   -4.43694565673   -1.08642828764
Ti    0.00818882945    5.91519077761   -1.47206047049
Ti    0.00818882945   -5.91519070321   -1.47206047049
Ti    0.00756376498    0.00000012951   -7.82214848697
Ti   -6.50038020909    0.00000016657   -1.46206781541
Ti    6.50360389446    0.00000016657   -1.46206781541
Ti    0.00756376498    2.95759549972   -7.82214848697
Ti    0.00756376498   -2.95759524069   -7.82214848697
Ti   -6.49527100724    2.95921161169   -1.46114172074
Ti   -6.49527094827   -2.95921118872   -1.46114174747
Ti    6.50871309631    2.95921161169   -1.46114172074
Ti    6.50871315528   -2.95921118872   -1.46114174747
Ti   -3.24343226091    1.47879781461   -7.82214848697
Ti   -3.24343226091   -1.47879755559   -7.82214848697
Ti    3.25855979087    1.47879781461   -7.82214848697
Ti    3.25855979087   -1.47879755559   -7.82214848697
Ti   -3.24267304265    5.91519102115   -4.43734639871
Ti   -3.24267304265   -5.91519045967   -4.43734639871
Ti    3.25790515343    5.91519090220   -4.43830014865
Ti    3.25790515343   -5.91519057863   -4.43830014865



ghost=serialno


qmmm=Amber
pointcharges
11988
      0.00942669232    2.95822490509   -1.47419934065    4.00000000000
      0.00942699220   -2.95822496193   -1.47419912357    4.00000000000
     -3.26375375073    0.00000016998   -2.58378087151   -2.00000000000
      3.26728237149    0.00000021261   -2.57753300904   -2.00000000000
--------------------Output has been truncated-------------------------


--------------------Output has been truncated-------------------------


--------------------Output has been truncated-------------------------


--------------------Output has been truncated-------------------------


--------------------Output has been truncated-------------------------


--------------------Output has been truncated-------------------------


--------------------Output has been truncated-------------------------


--------------------Output has been truncated-------------------------


--------------------Output has been truncated-------------------------


--------------------Output has been truncated-------------------------


 ************************ 2023-04-16 16:03:23 *************************
 Executing ccsd...

 Allocation of 220.0 Gbytes of memory...

 Direct DF-CCSD(T) calculation
 
 Convergence criterion:  1.0E-06
 
 Number of occupied/virtual/auxiliary orbitals:    28   391  1092
  10274.89 MB is the minimal memory requirement for (T)
   3043.66 MB is the minimal memory requirement for CCSD
 
 Reference energy [au]:         -120550.796619696892
 T1 contribution [au]:                0.000000000000
 Same spin MP2 energy [au]:          -0.546731643325
 Opposite spin MP2 energy [au]:      -1.477300502619
 MP2 correlation energy [au]:        -2.024032145942
 Total MP2 energy [au]:         -120552.820651842834
 
 
 CPU time [min]:     1.585                   Wall time [min]:     0.268
 
 Starting CCSD iterations...
 
                     Residual norm          Energy
 Iteration  1        0.449274726426  -120552.725899861762
 Iteration  2        0.181018756667  -120552.781331041435
 Iteration  3        0.053938240622  -120552.795826955771
 Iteration  4        0.019291697352  -120552.796361233224
 Iteration  5        0.006714653702  -120552.795125483739
 Iteration  6        0.002691293271  -120552.795170119120
 Iteration  7        0.001075636568  -120552.795213241174
 Iteration  8        0.000528227574  -120552.795188445220
 Iteration  9        0.000223421056  -120552.795180690300
 Iteration 10        0.000102262766  -120552.795185365496
 Iteration 11        0.000046136603  -120552.795187639116
 Iteration 12        0.000021773710  -120552.795187090975
 Iteration 13        0.000008794519  -120552.795187162919
 
 CCSD iteration has converged in 13 steps.
    92322.97 MB memory was utilized by CCSD
 
 T1 diagnostic:      1.955E-02            D1 diagnostic:      6.076E-02
 
 T1 contribution [au]:                                  0.000000000000
 Opposite spin CCSD energy [au]:                       -1.522082181607
 Same spin CCSD energy [au]:                           -0.476485284428
 CCSD correlation energy [au]:                         -1.998567466027
 Total CCSD energy [au]:                          -120552.795187162919
 
 CPU time [min]:   514.409                   Wall time [min]:    17.201
 
 Calculation of (T) correction...
 
 
    20601.02 MB memory is utilized for (T)

 0%       25%       50%       75%       100%
 |---------|---------|---------|---------| 
 
 (T) correction [au]:                                    -0.095826542126
 CCSD(T) correlation energy [au]:                        -2.094394008149
 Total CCSD(T) energy [au]:                         -120552.891013705041
 
 CPU time [min]:  1894.693                   Wall time [min]:    56.690
 
 ************************ 2023-04-16 17:00:05 *************************
                      Normal termination of mrcc.
 **********************************************************************
