 **********************************************************************
                          MRCC program system
 **********************************************************************
 
                              Written by
     Mihaly Kallay, Peter R. Nagy, David Mester, Laszlo Gyevi-Nagy,
        Jozsef Csoka, P. Bernat Szabo, Zoltan Rolik, Gyula Samu,
     Jozsef Csontos, Bence Hegely, Adam Ganyecz, Istvan Ladjanszki,
       Lorant Szegedy, Bence Ladoczki, Klara Petrov, Mate Farkas,
                    Pal D. Mezei, and Reka A. Horvath
 
        Department of Physical Chemistry and Materials Science
            Budapest University of Technology and Economics
                  Budapest P.O.Box 91, H-1521 Hungary
 
                              www.mrcc.hu
 
                      Release date: March 18, 2022

 ************************ 2023-02-05 13:14:47 *************************
 Executing minp...

 Reading input from MINP...
 
 Input file:
 
calc=FNO-CCSD(T)
verbosity=3
mem=220GB
unit=angs
scfiguess=small
scfalg=locfit1
ccmaxit=400
ccsdalg=dfdirect
ccsdthreads=4
ccsdmkl=thr
ptthreads=4
lnoepsv=1e-5
naf_cor=1e-2
basis=aug-cc-pVTZ
basis_sm=def2-SVP
dfbasis_scf=def2-QZVPP-RI-JK
dfbasis_cor=aug-cc-pVTZ-RI
unit=angs
geom=xyz
16

C    34.41670262    34.07107264    10.41543014
C    33.11117461    33.45680459    10.91530835
H    34.24160149    35.00442132     9.86225048
H    34.94674030    33.36940783     9.75379242
H    35.10002891    34.30603621    11.24227357
H    32.42643037    33.26105434    10.07939442
H    32.59136835    34.12756100    11.61262818
H    33.28915165    32.50678735    11.43686767
C    37.30146626    27.74053668    10.40840413
C    38.60118185    27.12669671    10.92356358
H    36.77618205    27.03634178     9.74574003
H    37.48351459    28.67149383     9.85293887
H    36.61042211    27.98114066    11.22701403
H    39.29509061    26.93003715    10.09557036
H    38.41693812    26.17717467    11.44395536
H    39.11327959    27.79828785    11.62583355

--------------------Output has been truncated-------------------------


--------------------Output has been truncated-------------------------


--------------------Output has been truncated-------------------------


--------------------Output has been truncated-------------------------


--------------------Output has been truncated-------------------------


--------------------Output has been truncated-------------------------


--------------------Output has been truncated-------------------------


--------------------Output has been truncated-------------------------


--------------------Output has been truncated-------------------------


--------------------Output has been truncated-------------------------


 
 Reference energy [au]:                       -79.259551466567
 DF-MP2 singlet pair energy [au]:              -0.300263438756
 DF-MP2 triplet pair energy [au]:              -0.075032717016
 DF-SCS-MP2 correlation energy [au]:           -0.385327032179
 DF-SCS-MP2 energy [au]:                      -79.644878498746
 DF-SOS-MP2 correlation energy [au]:           -0.390342470383
 DF-SOS-MP2 energy [au]:                      -79.649893936950
 DF-MP2 correlation energy [au]:               -0.375296155772
 DF-MP2 energy [au]:                          -79.634847622339

 Results in FNO basis:
 
 
 Reference energy [au]:                       -79.259551466567
 DF-MP2 singlet pair energy [au]:              -0.299090805381
 DF-MP2 triplet pair energy [au]:              -0.074926224705
 DF-SCS-MP2 correlation energy [au]:           -0.383884374692
 DF-SCS-MP2 energy [au]:                      -79.643435841260
 DF-SOS-MP2 correlation energy [au]:           -0.388818046995
 DF-SOS-MP2 energy [au]:                      -79.648369513563
 DF-MP2 correlation energy [au]:               -0.374017030087
 DF-MP2 energy [au]:                          -79.633568496654

 Results in NAF basis:
 
 
 Reference energy [au]:                       -79.259551466567
 DF-MP2 singlet pair energy [au]:              -0.299030105052
 DF-MP2 triplet pair energy [au]:              -0.074965268075
 DF-SCS-MP2 correlation energy [au]:           -0.383824548754
 DF-SCS-MP2 energy [au]:                      -79.643376015321
 DF-SOS-MP2 correlation energy [au]:           -0.388739136567
 DF-SOS-MP2 energy [au]:                      -79.648290603135
 DF-MP2 correlation energy [au]:               -0.373995373127
 DF-MP2 energy [au]:                          -79.633546839694

 ************************ 2023-02-05 13:15:30 *************************
 Executing ccsd...

 Allocation of 220.0 Gbytes of memory...

 Direct DF-CCSD(T) calculation
 
 Convergence criterion:  1.0E-06
 
 Number of occupied/virtual/auxiliary orbitals:     7   139   378
    421.21 MB is the minimal memory requirement for (T)
     94.89 MB is the minimal memory requirement for CCSD
 
 Reference energy [au]:             -79.259551466567
 T1 contribution [au]:                0.000000000000
 Same spin MP2 energy [au]:          -0.074945687206
 Opposite spin MP2 energy [au]:      -0.299060284363
 MP2 correlation energy [au]:        -0.374005971569
 Total MP2 energy [au]:             -79.633557438136
 MP2 correction [au]:                -0.001290184203
 
 
 CPU time [min]:     0.319                   Wall time [min]:     0.017
 
 Starting CCSD iterations...
 
                     Residual norm          Energy
 Iteration  1        0.170713955285      -79.654485679396
 Iteration  2        0.042454245932      -79.664050653285
 Iteration  3        0.011297040753      -79.665006753760
 Iteration  4        0.002548601763      -79.665015072121
 Iteration  5        0.000536659102      -79.665020277775
 Iteration  6        0.000152287148      -79.665023354926
 Iteration  7        0.000036257544      -79.665023139470
 Iteration  8        0.000009248922      -79.665023431129
 
 CCSD iteration has converged in  8 steps.
     1534.57 MB memory was utilized by CCSD
 
 T1 diagnostic:      7.817E-03            D1 diagnostic:      1.353E-02
 
 T1 contribution [au]:                                  0.000000000000
 PPL energy contribution [au]:                          0.102914650678
 Scaled PPL energy contribution [au]:                   0.103274095334

 OS-PPL energy contribution [au]:                       0.089964166193
 Scaled OS-PPL energy contribution [au]:                0.090335982258
 SS-PPL energy contribution [au]:                       0.012950484485
 Scaled SS-PPL energy contribution [au]:                0.012962350141

 Opposite spin CCSD energy [au]:                       -0.334290717670
 Same spin CCSD energy [au]:                           -0.071199898031
 CCSD correlation energy [au]:                         -0.405490615701
 CCSD correlation energy + MP2 correction [au]:        -0.406780799904
 CCSD correlation energy + MP2 + PPL corr. [au]:       -0.406421355248
 Total CCSD energy [au]:                              -79.665042082268
 Total CCSD energy + MP2 correction [au]:             -79.666332266471
 Total CCSD energy + MP2 + PPL corr. [au]:            -79.665972821815
 
 CPU time [min]:     2.742                   Wall time [min]:     0.088
 
 Calculation of (T) correction...
 
 
      388.93 MB memory is utilized for (T)

 0%       25%       50%       75%       100%
 |---------|---------|---------|---------| 
 
 (T) correction [au]:                                    -0.013959362070
 (T*) correction [au]:                                   -0.014007516778
 (T+) correction [au]:                                   -0.014006932015
 CCSD(T) correlation energy [au]:                        -0.419449977771
 CCSD(T) correlation energy + MP2 correction [au]:       -0.420740161974
 CCSD(T+) correlation en. + MP2 + PPL corr. [au]:        -0.420428287263
 Total CCSD(T) energy [au]:                             -79.679001444338
 Total CCSD(T) energy + MP2 correction [au]:            -79.680291628541
 Total CCSD(T+) energy + MP2 + PPL corr. [au]:          -79.679979753831
 
 CPU time [min]:     3.440                   Wall time [min]:     0.110
 
 ************************ 2023-02-05 13:15:37 *************************
                      Normal termination of mrcc.
 **********************************************************************
