 vasp.6.3.0 20Jan22 (build Aug 21 2024 11:13:42) complex                         
 executed on        HPECrayEX_GCC date 2024.08.22  13:26:02
 running  384 mpi-ranks, with    1 threads/rank
 distrk:  each k-point on  384 cores,    1 groups
 distr:  one band on NCORE=   8 cores,   48 groups


--------------------------------------------------------------------------------------------------------


 INCAR:
   SYSTEM = MgO-rocksalt
   ISMEAR = 0
   SIGMA = 0.05
   EDIFF = 1E-6
   ALGO = ALL
   ISTART = 0
   IBRION = -1
   NSW = 0
   ISYM = 0
   DIPOL = 0.5 0.5 0.5
   IDIPOL = 4
   LDIPOL = .TRUE.
   GGA = RE
   AGGAC = 0.0
   LUSE_VDW = .TRUE.
   LASPH = .TRUE.
   ENCUT = 600
   PREC = Accurate
   LASPH = .TRUE.
   LREAL = .FALSE.
   ISPIN = 1
   NELM = 200
   NELMIN = 8
   NCORE = 8
   KPAR = 1
   LWAVE = .FALSE.
   LCHARG = .FALSE.

 POTCAR:    PAW_PBE C 08Apr2002                   
 POTCAR:    PAW_PBE H 15Jun2001                   
 -----------------------------------------------------------------------------
|                                                                             |
|               ----> ADVICE to this user running VASP <----                  |
|                                                                             |
|     You have switched on vdW-DFT.                                           |
|     This routine was written and supplied by Jiri Klimes. We recommend      |
|     that you carefully read and cite the following publications:            |
|       J. Klimes, D.R. Bowler, A. Michelides                                 |
|          J. Phys.: Cond Matt. 22 022201 (2010)                              |
|       J. Klimes, D.R. Bowler, A. Michelides                                 |
|          Phys. Rev. B. 83, 195131 (2011)                                    |
|     and references therein.                                                 |
|                                                                             |
 -----------------------------------------------------------------------------

 POTCAR:    PAW_PBE C 08Apr2002                   
   SHA256 =  253f7b50bb8d59471dbedb8285d89021f4a42ed1a2c5d38a03a736e69125dd95 C/POTCAR              
   COPYR  = (c) Copyright 08Apr2002 Georg Kresse                                                    
   COPYR  = This file is part of the software VASP. Any use, copying, and all other rights are regul
   COPYR  = If you do not have a valid VASP license, you may not use, copy or distribute this file. 
   VRHFIN =C: s2p2                                                                                  
   LEXCH  = PE                                                                                      
   EATOM  =   147.1560 eV,   10.8157 Ry                                                             
                                                                                                    
   TITEL  = PAW_PBE C 08Apr2002                                                                     
   LULTRA =        F    use ultrasoft PP ?                                                          
   IUNSCR =        1    unscreen: 0-lin 1-nonlin 2-no                                               
   RPACOR =    1.200    partial core radius                                                         
   POMASS =   12.011; ZVAL   =    4.000    mass and valenz                                          
   RCORE  =    1.500    outmost cutoff radius                                                       
   RWIGS  =    1.630; RWIGS  =    0.863    wigner-seitz radius (au A)                               
   ENMAX  =  400.000; ENMIN  =  300.000 eV                                                          
   ICORE  =        2    local potential                                                             
   LCOR   =        T    correct aug charges                                                         
   LPAW   =        T    paw PP                                                                      
   EAUG   =  644.873                                                                                
   DEXC   =    0.000                                                                                
   RMAX   =    1.529    core radius for proj-oper                                                   
   RAUG   =    1.300    factor for augmentation sphere                                              
   RDEP   =    1.501    radius for radial grids                                                     
   RDEPT  =    1.300    core radius for aug-charge                                                  
                                                                                                    
   Atomic configuration                                                                             
    4 entries                                                                                       
     n  l   j            E        occ.                                                              
     1  0  0.50      -273.3789   2.0000                                                             
     2  0  0.50       -13.7508   2.0000                                                             
     2  1  0.50        -5.2854   2.0000                                                             
     3  2  1.50        -5.4423   0.0000                                                             
   Description                                                                                      
     l       E           TYP  RCUT    TYP  RCUT                                                     
     0    -13.7508458     23  1.200                                                                 
     0     -8.2022199     23  1.200                                                                 
     1     -5.2854383     23  1.500                                                                 
     1     34.0145650     23  1.500                                                                 
     2     -5.4423304      7  1.500                                                                 
  local pseudopotential read in
  partial core-charges read in
  partial kinetic energy density read in
  atomic valenz-charges read in
  non local Contribution for L=           0  read in
    real space projection operators read in
  non local Contribution for L=           0  read in
    real space projection operators read in
  non local Contribution for L=           1  read in
    real space projection operators read in
  non local Contribution for L=           1  read in
    real space projection operators read in
    PAW grid and wavefunctions read in

   number of l-projection  operators is LMAX  =           4
   number of lm-projection operators is LMMAX =           8

 POTCAR:    PAW_PBE H 15Jun2001                   
   SHA256 =  030f79b5d3ab3cf0e668861823c8fb652ff669f3e15e46930bd03bfd63a607b6 H/POTCAR              
   COPYR  = (c) Copyright 15Jun2001 Georg Kresse                                                    
   COPYR  = This file is part of the software VASP. Any use, copying, and all other rights are regul
   COPYR  = If you do not have a valid VASP license, you may not use, copy or distribute this file. 
   VRHFIN =H: ultrasoft test                                                                        
   LEXCH  = PE                                                                                      
   EATOM  =    12.4884 eV,    0.9179 Ry                                                             
                                                                                                    
   TITEL  = PAW_PBE H 15Jun2001                                                                     
   LULTRA =        F    use ultrasoft PP ?                                                          
   IUNSCR =        0    unscreen: 0-lin 1-nonlin 2-no                                               
   RPACOR =    0.000    partial core radius                                                         
   POMASS =    1.000; ZVAL   =    1.000    mass and valenz                                          
   RCORE  =    1.100    outmost cutoff radius                                                       
   RWIGS  =    0.700; RWIGS  =    0.370    wigner-seitz radius (au A)                               
   ENMAX  =  250.000; ENMIN  =  200.000 eV                                                          
   RCLOC  =    0.701    cutoff for local pot                                                        
   LCOR   =        T    correct aug charges                                                         
   LPAW   =        T    paw PP                                                                      
   EAUG   =  400.000                                                                                
   RMAX   =    1.123    core radius for proj-oper                                                   
   RAUG   =    1.200    factor for augmentation sphere                                              
   RDEP   =    1.112    radius for radial grids                                                     
   RDEPT  =    0.926    core radius for aug-charge                                                  
                                                                                                    
   Atomic configuration                                                                             
    2 entries                                                                                       
     n  l   j            E        occ.                                                              
     1  0  0.50        -6.4927   1.0000                                                             
     2  1  0.50        -3.4015   0.0000                                                             
   Description                                                                                      
     l       E           TYP  RCUT    TYP  RCUT                                                     
     0     -6.4927494     23  1.100                                                                 
     0      6.8029130     23  1.100                                                                 
     1     -4.0817478     23  1.100                                                                 
  local pseudopotential read in
  atomic valenz-charges read in
  non local Contribution for L=           0  read in
    real space projection operators read in
  non local Contribution for L=           0  read in
    real space projection operators read in
  non local Contribution for L=           1  read in
    real space projection operators read in
    PAW grid and wavefunctions read in

   number of l-projection  operators is LMAX  =           3
   number of lm-projection operators is LMMAX =           5

 -----------------------------------------------------------------------------
|                                                                             |
|               ----> ADVICE to this user running VASP <----                  |
|                                                                             |
|     You enforced a specific xc type in the INCAR file but a different       |
|     type was found in the POTCAR file.                                      |
|     I HOPE YOU KNOW WHAT YOU ARE DOING!                                     |
|                                                                             |
 -----------------------------------------------------------------------------

  PAW_PBE C 08Apr2002                   :
 energy of atom  1       EATOM= -147.1560
 kinetic energy error for atom=    0.0057 (will be added to EATOM!!)
  PAW_PBE H 15Jun2001                   :
 energy of atom  2       EATOM=  -12.4884
 kinetic energy error for atom=    0.0004 (will be added to EATOM!!)


 POSCAR:  C  H
  positions in direct lattice
  No initial velocities read in
 exchange correlation table for  LEXCH =       40
   RHO(1)=    0.500       N(1)  =     2000
   RHO(2)=  100.500       N(2)  =     4000



--------------------------------------------------------------------------------------------------------


 ion  position               nearest neighbor table
   1  0.615  0.518  0.486-   5 1.10   4 1.10   3 1.10   2 1.53
   2  0.673  0.483  0.513-   7 1.10   1 1.53
   3  0.592  0.479  0.446-   1 1.10
   4  0.623  0.572  0.454-   1 1.10
   5  0.586  0.531  0.536-   1 1.10
   6  0.333  0.473  0.462-
   7  0.666  0.428  0.543-   2 1.10
   8  0.327  0.520  0.554-


IMPORTANT INFORMATION: All symmetrisations will be switched off!
NOSYMM: (Re-)initialisation of all symmetry stuff for point group C_1.


----------------------------------------------------------------------------------------

                                     Primitive cell                                     

  volume of cell :    6761.5873

  direct lattice vectors                    reciprocal lattice vectors
    22.928352975  0.000000000  0.000000000     0.043614123  0.000000000  0.000000000
     0.000000000 17.534581137  0.000000000     0.000000000  0.057030162  0.000000000
     0.000000000  0.000000000 16.818234573     0.000000000  0.000000000  0.059459273

  length of vectors
    22.928352975 17.534581137 16.818234573     0.043614123  0.057030162  0.059459273

  position of ions in fractional coordinates (direct lattice)
     0.615451857  0.518192679  0.485528698
     0.672894080  0.482684062  0.512681104
     0.591687418  0.478839494  0.445944547
     0.622741775  0.572273786  0.453701232
     0.586335587  0.530699529  0.535828458
     0.332667695  0.472638657  0.461663665
     0.665714928  0.427726214  0.542667394
     0.327105920  0.520333971  0.554055453

  ion indices of the primitive-cell ions
   primitive index   ion index
                 1           1
                 2           2
                 3           3
                 4           4
                 5           5
                 6           6
                 7           7
                 8           8

----------------------------------------------------------------------------------------



 KPOINTS: pymatgen v2020.8.13 with grid density = 

Automatic generation of k-mesh.
 Grid dimensions read from file:
 generate k-points for:    1    1    1

 Generating k-lattice:

  Cartesian coordinates                     Fractional coordinates (reciprocal lattice)
     0.043614123  0.000000000  0.000000000     1.000000000  0.000000000  0.000000000
     0.000000000  0.057030162  0.000000000     0.000000000  1.000000000  0.000000000
     0.000000000  0.000000000  0.059459273     0.000000000  0.000000000  1.000000000

  Length of vectors
     0.043614123  0.057030162  0.059459273

  Shift w.r.t. Gamma in fractional coordinates (k-lattice)
     0.000000000  0.000000000  0.000000000

 
 Subroutine IBZKPT returns following result:
 ===========================================
 
 Found      1 irreducible k-points:
 
 Following reciprocal coordinates:
            Coordinates               Weight
  0.000000  0.000000  0.000000      1.000000
 
 Following cartesian coordinates:
            Coordinates               Weight
  0.000000  0.000000  0.000000      1.000000
 


--------------------------------------------------------------------------------------------------------




 Dimension of arrays:
   k-points           NKPTS =      1   k-points in BZ     NKDIM =      1   number of bands    NBANDS=     48
   number of dos      NEDOS =    301   number of ions     NIONS =      8
   non local maximal  LDIM  =      4   non local SUM 2l+1 LMDIM =      8
   total plane-waves  NPLWV = ******
   max r-space proj   IRMAX =      1   max aug-charges    IRDMAX=   6767
   dimension x,y,z NGX =   192 NGY =  140 NGZ =  140
   dimension x,y,z NGXF=   384 NGYF=  280 NGZF=  280
   support grid    NGXF=   384 NGYF=  280 NGZF=  280
   ions per type =               2   6
   NGX,Y,Z   is equivalent  to a cutoff of  13.92, 13.27, 13.84 a.u.
   NGXF,Y,Z  is equivalent  to a cutoff of  27.84, 26.55, 27.68 a.u.

 SYSTEM =  MgO-rocksalt                            
 POSCAR =   C  H                                   

--------------------------------------------------------------------------------------------------------


  energy-cutoff  :      600.00
  volume of cell :     6761.59
      direct lattice vectors                 reciprocal lattice vectors
    22.928352975  0.000000000  0.000000000     0.043614123  0.000000000  0.000000000
     0.000000000 17.534581137  0.000000000     0.000000000  0.057030162  0.000000000
     0.000000000  0.000000000 16.818234573     0.000000000  0.000000000  0.059459273

  length of vectors
    22.928352975 17.534581137 16.818234573     0.043614123  0.057030162  0.059459273



 k-points in units of 2pi/SCALE and weight: pymatgen v2020.8.13 with grid density = 
   0.00000000  0.00000000  0.00000000       1.000

 k-points in reciprocal lattice and weights: pymatgen v2020.8.13 with grid density = 
   0.00000000  0.00000000  0.00000000       1.000

 position of ions in fractional coordinates (direct lattice) 
   0.61545186  0.51819268  0.48552870
   0.67289408  0.48268406  0.51268110
   0.59168742  0.47883949  0.44594455
   0.62274177  0.57227379  0.45370123
   0.58633559  0.53069953  0.53582846
   0.33266769  0.47263866  0.46166366
   0.66571493  0.42772621  0.54266739
   0.32710592  0.52033397  0.55405545

 position of ions in cartesian coordinates  (Angst):
  14.11129741  9.08629158  8.16573554
  15.42835298  8.46366285  8.62239107
  13.56641797  8.39624996  7.50000000
  14.27844323 10.03458114  7.63045374
  13.44370929  9.30559395  9.01168870
   7.62752233  8.28752088  7.76436781
  15.26374684  7.50000000  9.12670753
   7.50000000  9.12383822  9.31823457



--------------------------------------------------------------------------------------------------------

--------------------------------------- Iteration      FINAL  ---------------------------------------


--------------------OUTCAR has been truncated-------------------------


--------------------OUTCAR has been truncated-------------------------


--------------------OUTCAR has been truncated-------------------------


--------------------OUTCAR has been truncated-------------------------


--------------------OUTCAR has been truncated-------------------------


--------------------OUTCAR has been truncated-------------------------


--------------------OUTCAR has been truncated-------------------------


--------------------OUTCAR has been truncated-------------------------


--------------------OUTCAR has been truncated-------------------------


--------------------OUTCAR has been truncated-------------------------


  FORCE on cell =-STRESS in cart. coord.  units (eV):
  Direction    XX          YY          ZZ          XY          YZ          ZX
  --------------------------------------------------------------------------------------
  Alpha Z     0.11531     0.11531     0.11531
  Ewald     158.73005   122.14209    79.67847   -58.13142   -46.28126    40.71650
  Hartree   249.81033   209.13403   189.75004   -34.59924   -26.25916    25.59851
  E(xc)     -47.47605   -47.17236   -47.64181    -0.06531    -0.34071     0.06042
  Local    -528.56632  -438.10859  -370.93396    89.97227    76.73528   -66.70375
  n-local   -20.47827   -18.55094   -15.32976    -1.34780     2.28188     0.20729
  augment     0.34100     0.23456     0.19854     0.00902    -0.03044     0.01079
  Kinetic   186.41324   170.60540   159.77986     5.54071    -8.24005    -0.27591
  Fock        0.00000     0.00000     0.00000     0.00000     0.00000     0.00000
  -------------------------------------------------------------------------------------
  Total      -1.11071    -1.60051    -4.38331     1.37824    -2.13446    -0.38615
  in kB      -0.26319    -0.37924    -1.03864     0.32658    -0.50577    -0.09150
  external pressure =       -0.56 kB  Pullay stress =        0.00 kB


 VOLUME and BASIS-vectors are now :
 -----------------------------------------------------------------------------
  energy-cutoff  :      600.00
  volume of cell :     6761.59
      direct lattice vectors                 reciprocal lattice vectors
    22.928352975  0.000000000  0.000000000     0.043614123  0.000000000  0.000000000
     0.000000000 17.534581137  0.000000000     0.000000000  0.057030162  0.000000000
     0.000000000  0.000000000 16.818234573     0.000000000  0.000000000  0.059459273

  length of vectors
    22.928352975 17.534581137 16.818234573     0.043614123  0.057030162  0.059459273


 FORCES acting on ions:
    Electron-Ion                     Ewald-Force                    Non-Local-Force
 -----------------------------------------------------------------------------------------------
   0.461E+02 -.278E+02 0.196E+02   -.441E+02 0.283E+02 -.199E+02   -.736E+00 -.642E+00 0.287E+00
   -.103E+03 0.199E+02 -.202E+02   0.121E+03 -.114E+02 0.172E+02   -.186E+02 -.757E+01 0.249E+01
   0.332E+02 0.321E+02 0.373E+02   -.361E+02 -.356E+02 -.406E+02   0.273E+01 0.339E+01 0.337E+01
   -.393E+01 -.519E+02 0.297E+02   0.484E+01 0.567E+02 -.325E+02   -.923E+00 -.492E+01 0.276E+01
   0.395E+02 -.152E+02 -.417E+02   -.431E+02 0.161E+02 0.461E+02   0.339E+01 -.120E+01 -.422E+01
   0.267E+01 0.362E+01 0.645E+01   -.286E+01 -.243E+01 -.424E+01   -.411E-01 0.305E+00 0.567E+00
   -.425E+01 0.485E+02 -.265E+02   0.318E+01 -.539E+02 0.293E+02   0.489E+00 0.513E+01 -.271E+01
   0.351E+01 -.345E+01 -.662E+01   -.334E+01 0.226E+01 0.441E+01   0.517E-01 -.305E+00 -.567E+00
 -----------------------------------------------------------------------------------------------
   0.137E+02 0.582E+01 -.198E+01   0.142E-13 -.711E-14 -.355E-14   -.137E+02 -.582E+01 0.198E+01


 POSITION                                       TOTAL-FORCE (eV/Angst)
 -----------------------------------------------------------------------------------
     14.11130      9.08629      8.16574         1.187441     -0.087311      0.022033
     15.42835      8.46366      8.62239        -0.352948      0.969238     -0.518608
     13.56642      8.39625      7.50000        -0.122017     -0.175195      0.080408
     14.27844     10.03458      7.63045        -0.007845     -0.181994      0.054341
     13.44371      9.30559      9.01169        -0.127119     -0.248428      0.241572
      7.62752      8.28752      7.76437        -0.226348      1.492967      2.773691
     15.26375      7.50000      9.12671        -0.580094     -0.276577      0.120319
      7.50000      9.12384      9.31823         0.228929     -1.492699     -2.773756
 -----------------------------------------------------------------------------------
    total drift:                               -0.000217     -0.000635      0.000230


--------------------------------------------------------------------------------------------------------



  FREE ENERGIE OF THE ION-ELECTRON SYSTEM (eV)
  ---------------------------------------------------
  free  energy   TOTEN  =       -28.65371996 eV

  energy  without entropy=      -28.65371406  energy(sigma->0) =      -28.65371701



--------------------------------------------------------------------------------------------------------


    POTLOK:  cpu time      1.3324: real time      1.3328


--------------------------------------------------------------------------------------------------------


     LOOP+:  cpu time     56.4552: real time     56.5190
    4ORBIT:  cpu time      0.0000: real time      0.0000

 total amount of memory used by VASP MPI-rank0    78614. kBytes
=======================================================================

   base      :      30000. kBytes
   nonl-proj :       7225. kBytes
   fftplans  :      16742. kBytes
   grid      :      23288. kBytes
   one-center:          3. kBytes
   wavefun   :       1356. kBytes

  
  
 General timing and accounting informations for this job:
 ========================================================
  
                  Total CPU time used (sec):       74.409
                            User time (sec):       73.341
                          System time (sec):        1.068
                         Elapsed time (sec):       78.466
  
                   Maximum memory used (kb):      339352.
                   Average memory used (kb):          N/A
  
                          Minor page faults:        28105
                          Major page faults:         1148
                 Voluntary context switches:         8640
