 **********************************************************************
                          MRCC program system
 **********************************************************************
 
                              Written by
     Mihaly Kallay, Peter R. Nagy, David Mester, Laszlo Gyevi-Nagy,
        Jozsef Csoka, P. Bernat Szabo, Zoltan Rolik, Gyula Samu,
     Jozsef Csontos, Bence Hegely, Adam Ganyecz, Istvan Ladjanszki,
       Lorant Szegedy, Bence Ladoczki, Klara Petrov, Mate Farkas,
                    Pal D. Mezei, and Reka A. Horvath
 
        Department of Physical Chemistry and Materials Science
            Budapest University of Technology and Economics
                  Budapest P.O.Box 91, H-1521 Hungary
 
                              www.mrcc.hu
 
                      Release date: March 18, 2022

 ************************ 2023-04-16 06:47:58 *************************
 Executing minp...

 Reading input from MINP...
 
 Input file:
 
calc=DF-CCSD(T)
scftype=rhf
verbosity=3
mem=220GB
symm=off
unit=angs
scfiguess=small
scfmaxit=1000
scfalg=locfit1


ccmaxit=400
ccsdalg=dfdirect
ccsdthreads=4
ccsdmkl=thr
ptthreads=4

charge=0
core=1

basis=special
aug-cc-pVTZ
aug-cc-pVTZ
aug-cc-pVTZ
aug-cc-pVTZ
aug-cc-pVTZ
cc-pVTZ
aug-cc-pVTZ
aug-cc-pVTZ
aug-cc-pVTZ
aug-cc-pVTZ
aug-cc-pVTZ

basis_sm=special
def2-SVP
def2-SVP
def2-SVP
def2-SVP
def2-SVP
def2-SVP
def2-SVP
def2-SVP
def2-SVP
def2-SVP
def2-SVP

dfbasis_scf=special
def2-QZVPP-RI-JK
def2-QZVPP-RI-JK
def2-QZVPP-RI-JK
def2-QZVPP-RI-JK
def2-QZVPP-RI-JK
def2-QZVPP-RI-JK
def2-QZVPP-RI-JK
def2-QZVPP-RI-JK
def2-QZVPP-RI-JK
def2-QZVPP-RI-JK
def2-QZVPP-RI-JK

dfbasis_cor=special
aug-cc-pVTZ-RI
aug-cc-pVTZ-RI
aug-cc-pVTZ-RI
aug-cc-pVTZ-RI
aug-cc-pVTZ-RI
cc-pVTZ-RI
aug-cc-pVTZ-RI
aug-cc-pVTZ-RI
aug-cc-pVTZ-RI
aug-cc-pVTZ-RI
aug-cc-pVTZ-RI

ecp=special
none
none
none
none
none
none
none
none
none
none
none

unit=angs
geom=xyz
11
C1 H4 Ti1 O5 ECP39
C     0.00081705011    0.00002320526    1.72884400563
H    -0.05053213056    0.89633029753    2.35813838108
H     0.05226472379   -0.89631224347    2.35825565611
H     0.91773540605    0.05070703259    1.12689725392
H    -0.91630859930   -0.05082132031    1.12709961754
Ti    0.00000000000    0.00000000000   -1.43694122213
O    -0.00002936641   -0.00000124851   -3.25550860866
O    -1.22612024541    1.48550586123   -1.15098137904
O     1.22610246459   -1.48551652698   -1.15102871986
O    -1.22708949291   -1.48603818367   -1.15413241300
O     1.22707044266    1.48604777705   -1.15418645989

ghost=serialno
6-11

 
 
 Checking keyword combinations...
 
 Keywords:
 
 active=none
--------------------Output has been truncated-------------------------


--------------------Output has been truncated-------------------------


--------------------Output has been truncated-------------------------


--------------------Output has been truncated-------------------------


--------------------Output has been truncated-------------------------


--------------------Output has been truncated-------------------------


--------------------Output has been truncated-------------------------


--------------------Output has been truncated-------------------------


--------------------Output has been truncated-------------------------


--------------------Output has been truncated-------------------------


 ************************ 2023-04-16 06:48:44 *************************
 Executing ccsd...

 Allocation of 220.0 Gbytes of memory...

 Direct DF-CCSD(T) calculation
 
 Convergence criterion:  1.0E-06
 
 Number of occupied/virtual/auxiliary orbitals:     4   431  1064
  11965.71 MB is the minimal memory requirement for (T)
   1686.88 MB is the minimal memory requirement for CCSD
 
 Reference energy [au]:             -40.212650396090
 T1 contribution [au]:                0.000000000000
 Same spin MP2 energy [au]:          -0.036630777190
 Opposite spin MP2 energy [au]:      -0.164629505472
 MP2 correlation energy [au]:        -0.201260282662
 Total MP2 energy [au]:             -40.413910678752
 
 
 CPU time [min]:     0.658                   Wall time [min]:     0.182
 
 Starting CCSD iterations...
 
                     Residual norm          Energy
 Iteration  1        0.133571346755      -40.428027503889
 Iteration  2        0.033969843504      -40.433579407880
 Iteration  3        0.008352146353      -40.434056482842
 Iteration  4        0.001973281136      -40.434055412791
 Iteration  5        0.000434179131      -40.434061692902
 Iteration  6        0.000138012450      -40.434063219678
 Iteration  7        0.000032767725      -40.434063294453
 Iteration  8        0.000010082615      -40.434063476910
 Iteration  9        0.000002605232      -40.434063533536
 
 CCSD iteration has converged in  9 steps.
   133886.18 MB memory was utilized by CCSD
 
 T1 diagnostic:      7.614E-03            D1 diagnostic:      1.258E-02
 
 T1 contribution [au]:                                  0.000000000000
 Opposite spin CCSD energy [au]:                       -0.186026972388
 Same spin CCSD energy [au]:                           -0.035386165058
 CCSD correlation energy [au]:                         -0.221413137446
 Total CCSD energy [au]:                              -40.434063533536
 
 CPU time [min]:   258.572                   Wall time [min]:     7.623
 
 Calculation of (T) correction...
 
 
     8922.90 MB memory is utilized for (T)

 0%       25%       50%       75%       100%
 |---------|---------|---------|---------| 
 
 (T) correction [au]:                                    -0.006632973815
 CCSD(T) correlation energy [au]:                        -0.228046111260
 Total CCSD(T) energy [au]:                             -40.440696507350
 
 CPU time [min]:   265.296                   Wall time [min]:     8.149
 
 ************************ 2023-04-16 06:56:53 *************************
                      Normal termination of mrcc.
 **********************************************************************
