 **********************************************************************
                          MRCC program system
 **********************************************************************
 
                              Written by
     Mihaly Kallay, Peter R. Nagy, David Mester, Laszlo Gyevi-Nagy,
        Jozsef Csoka, P. Bernat Szabo, Zoltan Rolik, Gyula Samu,
     Jozsef Csontos, Bence Hegely, Adam Ganyecz, Istvan Ladjanszki,
       Lorant Szegedy, Bence Ladoczki, Klara Petrov, Mate Farkas,
                    Pal D. Mezei, and Reka A. Horvath
 
        Department of Physical Chemistry and Materials Science
            Budapest University of Technology and Economics
                  Budapest P.O.Box 91, H-1521 Hungary
 
                              www.mrcc.hu
 
                      Release date: March 18, 2022

 ************************ 2023-04-16 06:47:07 *************************
 Executing minp...

 Reading input from MINP...
 
 Input file:
 
calc=DF-CCSD(T)
scftype=rhf
verbosity=3
mem=220GB
symm=off
unit=angs
scfiguess=small
scfmaxit=1000
scfalg=locfit1


ccmaxit=400
ccsdalg=dfdirect
ccsdthreads=4
ccsdmkl=thr
ptthreads=4

charge=0
core=1

basis=special
aug-cc-pVDZ
aug-cc-pVDZ
aug-cc-pVDZ
aug-cc-pVDZ
aug-cc-pVDZ
cc-pVDZ
aug-cc-pVDZ
aug-cc-pVDZ
aug-cc-pVDZ
aug-cc-pVDZ
aug-cc-pVDZ

basis_sm=special
def2-SVP
def2-SVP
def2-SVP
def2-SVP
def2-SVP
def2-SVP
def2-SVP
def2-SVP
def2-SVP
def2-SVP
def2-SVP

dfbasis_scf=special
def2-QZVPP-RI-JK
def2-QZVPP-RI-JK
def2-QZVPP-RI-JK
def2-QZVPP-RI-JK
def2-QZVPP-RI-JK
def2-QZVPP-RI-JK
def2-QZVPP-RI-JK
def2-QZVPP-RI-JK
def2-QZVPP-RI-JK
def2-QZVPP-RI-JK
def2-QZVPP-RI-JK

dfbasis_cor=special
aug-cc-pVDZ-RI
aug-cc-pVDZ-RI
aug-cc-pVDZ-RI
aug-cc-pVDZ-RI
aug-cc-pVDZ-RI
cc-pVDZ-RI
aug-cc-pVDZ-RI
aug-cc-pVDZ-RI
aug-cc-pVDZ-RI
aug-cc-pVDZ-RI
aug-cc-pVDZ-RI

ecp=special
none
none
none
none
none
none
none
none
none
none
none

unit=angs
geom=xyz
11
C1 H4 Ti1 O5 ECP39
C     0.00081705011    0.00002320526    1.72884400563
H    -0.05053213056    0.89633029753    2.35813838108
H     0.05226472379   -0.89631224347    2.35825565611
H     0.91773540605    0.05070703259    1.12689725392
H    -0.91630859930   -0.05082132031    1.12709961754
Ti    0.00000000000    0.00000000000   -1.43694122213
O    -0.00002936641   -0.00000124851   -3.25550860866
O    -1.22612024541    1.48550586123   -1.15098137904
O     1.22610246459   -1.48551652698   -1.15102871986
O    -1.22708949291   -1.48603818367   -1.15413241300
O     1.22707044266    1.48604777705   -1.15418645989

ghost=serialno
6-11

 
 
 Checking keyword combinations...
 
 Keywords:
 
 active=none
--------------------Output has been truncated-------------------------


--------------------Output has been truncated-------------------------


--------------------Output has been truncated-------------------------


--------------------Output has been truncated-------------------------


--------------------Output has been truncated-------------------------


--------------------Output has been truncated-------------------------


--------------------Output has been truncated-------------------------


--------------------Output has been truncated-------------------------


--------------------Output has been truncated-------------------------


--------------------Output has been truncated-------------------------


 ************************ 2023-04-16 06:47:29 *************************
 Executing ccsd...

 Allocation of 220.0 Gbytes of memory...

 Direct DF-CCSD(T) calculation
 
 Convergence criterion:  1.0E-06
 
 Number of occupied/virtual/auxiliary orbitals:     4   212   768
   1519.31 MB is the minimal memory requirement for (T)
    314.93 MB is the minimal memory requirement for CCSD
 
 Reference energy [au]:             -40.199216234856
 T1 contribution [au]:                0.000000000000
 Same spin MP2 energy [au]:          -0.031995299564
 Opposite spin MP2 energy [au]:      -0.136820012506
 MP2 correlation energy [au]:        -0.168815312070
 Total MP2 energy [au]:             -40.368031546926
 
 
 CPU time [min]:     0.185                   Wall time [min]:     0.034
 
 Starting CCSD iterations...
 
                     Residual norm          Energy
 Iteration  1        0.117841554636      -40.385527153514
 Iteration  2        0.032622052439      -40.391196979351
 Iteration  3        0.006126009754      -40.391516620606
 Iteration  4        0.001745796736      -40.391539385047
 Iteration  5        0.000427678171      -40.391543599955
 Iteration  6        0.000128938920      -40.391544898657
 Iteration  7        0.000032524948      -40.391545603421
 Iteration  8        0.000009016932      -40.391545861754
 
 CCSD iteration has converged in  8 steps.
     8079.82 MB memory was utilized by CCSD
 
 T1 diagnostic:      6.828E-03            D1 diagnostic:      1.120E-02
 
 T1 contribution [au]:                                  0.000000000000
 Opposite spin CCSD energy [au]:                       -0.161274055474
 Same spin CCSD energy [au]:                           -0.031055571424
 CCSD correlation energy [au]:                         -0.192329626898
 Total CCSD energy [au]:                              -40.391545861754
 
 CPU time [min]:    11.883                   Wall time [min]:     0.361
 
 Calculation of (T) correction...
 
 
     1158.59 MB memory is utilized for (T)

 0%       25%       50%       75%       100%
 |---------|---------|---------|---------| 
 
 (T) correction [au]:                                    -0.004607617282
 CCSD(T) correlation energy [au]:                        -0.196937244180
 Total CCSD(T) energy [au]:                             -40.396153479036
 
 CPU time [min]:    12.784                   Wall time [min]:     0.410
 
 ************************ 2023-04-16 06:47:54 *************************
                      Normal termination of mrcc.
 **********************************************************************
