 **********************************************************************
                          MRCC program system
 **********************************************************************
 
                              Written by
     Mihaly Kallay, Peter R. Nagy, David Mester, Laszlo Gyevi-Nagy,
        Jozsef Csoka, P. Bernat Szabo, Zoltan Rolik, Gyula Samu,
     Jozsef Csontos, Bence Hegely, Adam Ganyecz, Istvan Ladjanszki,
       Lorant Szegedy, Bence Ladoczki, Klara Petrov, Mate Farkas,
                    Pal D. Mezei, and Reka A. Horvath
 
        Department of Physical Chemistry and Materials Science
            Budapest University of Technology and Economics
                  Budapest P.O.Box 91, H-1521 Hungary
 
                              www.mrcc.hu
 
                      Release date: March 18, 2022

 ************************ 2023-02-05 13:24:31 *************************
 Executing minp...

 Reading input from MINP...
 
 Input file:
 
calc=FNO-CCSD(T)
verbosity=3
mem=220GB
unit=angs
scfiguess=small
scfalg=locfit1
ccmaxit=400
ccsdalg=dfdirect
ccsdthreads=4
ccsdmkl=thr
ptthreads=4
lnoepsv=1e-5
naf_cor=1e-2
basis=aug-cc-pVQZ
basis_sm=def2-SVP
dfbasis_scf=def2-QZVPP-RI-JK
dfbasis_cor=aug-cc-pVQZ-RI
unit=angs
geom=xyz
16

C    34.41670262    34.07107264    10.41543014
C    33.11117461    33.45680459    10.91530835
H    34.24160149    35.00442132     9.86225048
H    34.94674030    33.36940783     9.75379242
H    35.10002891    34.30603621    11.24227357
H    32.42643037    33.26105434    10.07939442
H    32.59136835    34.12756100    11.61262818
H    33.28915165    32.50678735    11.43686767
C    17.53475103    29.85060628    10.41548088
C    16.22919370    29.23631074    10.91529140
H    17.35954847    30.78404540     9.86250154
H    18.06472348    29.14873389     9.75399090
H    18.21833380    30.08569049    11.24209422
H    15.54431929    29.04041272    10.07951373
H    15.70935630    29.90724332    11.61243196
H    16.40725531    28.28620799    11.43663402

--------------------Output has been truncated-------------------------


--------------------Output has been truncated-------------------------


--------------------Output has been truncated-------------------------


--------------------Output has been truncated-------------------------


--------------------Output has been truncated-------------------------


--------------------Output has been truncated-------------------------


--------------------Output has been truncated-------------------------


--------------------Output has been truncated-------------------------


--------------------Output has been truncated-------------------------


--------------------Output has been truncated-------------------------


 
 Reference energy [au]:                      -158.528871747381
 DF-MP2 singlet pair energy [au]:              -0.635444979511
 DF-MP2 triplet pair energy [au]:              -0.153812785125
 DF-SCS-MP2 correlation energy [au]:           -0.813804903789
 DF-SCS-MP2 energy [au]:                     -159.342676651169
 DF-SOS-MP2 correlation energy [au]:           -0.826078473365
 DF-SOS-MP2 energy [au]:                     -159.354950220745
 DF-MP2 correlation energy [au]:               -0.789257764636
 DF-MP2 energy [au]:                         -159.318129512017

 Results in FNO basis:
 
 
 Reference energy [au]:                      -158.528871747381
 DF-MP2 singlet pair energy [au]:              -0.625097819947
 DF-MP2 triplet pair energy [au]:              -0.153241012801
 DF-SCS-MP2 correlation energy [au]:           -0.801197721537
 DF-SCS-MP2 energy [au]:                     -159.330069468917
 DF-SOS-MP2 correlation energy [au]:           -0.812627165931
 DF-SOS-MP2 energy [au]:                     -159.341498913312
 DF-MP2 correlation energy [au]:               -0.778338832748
 DF-MP2 energy [au]:                         -159.307210580128

 Results in NAF basis:
 
 
 Reference energy [au]:                      -158.528871747381
 DF-MP2 singlet pair energy [au]:              -0.625055924384
 DF-MP2 triplet pair energy [au]:              -0.153257046191
 DF-SCS-MP2 correlation energy [au]:           -0.801152791324
 DF-SCS-MP2 energy [au]:                     -159.330024538705
 DF-SOS-MP2 correlation energy [au]:           -0.812572701699
 DF-SOS-MP2 energy [au]:                     -159.341444449079
 DF-MP2 correlation energy [au]:               -0.778312970575
 DF-MP2 energy [au]:                         -159.307184717956

 ************************ 2023-02-05 13:26:45 *************************
 Executing ccsd...

 Allocation of 220.0 Gbytes of memory...

 Direct DF-CCSD(T) calculation
 
 Convergence criterion:  1.0E-06
 
 Number of occupied/virtual/auxiliary orbitals:    14   350  1102
   6895.51 MB is the minimal memory requirement for (T)
   1574.97 MB is the minimal memory requirement for CCSD
 
 Reference energy [au]:            -158.528871747381
 T1 contribution [au]:                0.000000000000
 Same spin MP2 energy [au]:          -0.153249024372
 Opposite spin MP2 energy [au]:      -0.625076862750
 MP2 correlation energy [au]:        -0.778325887122
 Total MP2 energy [au]:            -159.307197634503
 MP2 correction [au]:                -0.010931877514
 
 
 CPU time [min]:     1.548                   Wall time [min]:     0.460
 
 Starting CCSD iterations...
 
                     Residual norm          Energy
 Iteration  1        0.253997699386     -159.343023465515
 Iteration  2        0.062948067098     -159.362187805634
 Iteration  3        0.018511794132     -159.364459318416
 Iteration  4        0.003748086073     -159.364473769804
 Iteration  5        0.000793337674     -159.364485500398
 Iteration  6        0.000221936611     -159.364489601453
 Iteration  7        0.000052462441     -159.364489151247
 Iteration  8        0.000014140500     -159.364489878986
 Iteration  9        0.000002817403     -159.364489836171
 
 CCSD iteration has converged in  9 steps.
    59039.49 MB memory was utilized by CCSD
 
 T1 diagnostic:      8.231E-03            D1 diagnostic:      1.428E-02
 
 T1 contribution [au]:                                  0.000000000000
 PPL energy contribution [au]:                          0.217871132862
 Scaled PPL energy contribution [au]:                   0.220950575121

 OS-PPL energy contribution [au]:                       0.191084684823
 Scaled OS-PPL energy contribution [au]:                0.194274495172
 SS-PPL energy contribution [au]:                       0.026786448040
 Scaled SS-PPL energy contribution [au]:                0.026882600218

 Opposite spin CCSD energy [au]:                       -0.690280610293
 Same spin CCSD energy [au]:                           -0.145352960010
 CCSD correlation energy [au]:                         -0.835633570303
 CCSD correlation energy + MP2 correction [au]:        -0.846565447817
 CCSD correlation energy + MP2 + PPL corr. [au]:       -0.843486005558
 Total CCSD energy [au]:                             -159.364505317684
 Total CCSD energy + MP2 correction [au]:            -159.375437195198
 Total CCSD energy + MP2 + PPL corr. [au]:           -159.372357752939
 
 CPU time [min]:   153.881                   Wall time [min]:     5.321
 
 Calculation of (T) correction...
 
 
     8828.31 MB memory is utilized for (T)

 0%       25%       50%       75%       100%
 |---------|---------|---------|---------| 
 
 (T) correction [au]:                                    -0.029525448735
 (T*) correction [au]:                                   -0.029940144680
 (T+) correction [au]:                                   -0.029933081441
 CCSD(T) correlation energy [au]:                        -0.865159019038
 CCSD(T) correlation energy + MP2 correction [au]:       -0.876090896552
 CCSD(T+) correlation en. + MP2 + PPL corr. [au]:        -0.873419086999
 Total CCSD(T) energy [au]:                            -159.394030766419
 Total CCSD(T) energy + MP2 correction [au]:           -159.404962643933
 Total CCSD(T+) energy + MP2 + PPL corr. [au]:         -159.402290834380
 
 CPU time [min]:   275.066                   Wall time [min]:     8.944
 
 ************************ 2023-02-05 13:35:41 *************************
                      Normal termination of mrcc.
 **********************************************************************
