 vasp.6.4.2 20Jul23 (build Nov 17 2023 15:39:20) complex                         
 executed on              LinuxNV date 2024.02.27  23:17:29
 running    4 mpi-ranks, with    1 threads/rank, on    1 nodes
 distrk:  each k-point on    4 cores,    1 groups
 distr:  one band on NCORE=   1 cores,    4 groups
 OpenACC runtime initialized ...    4 GPUs detected


--------------------------------------------------------------------------------------------------------


 INCAR:
   SYSTEM = Oxide-Surface
   ISMEAR = 0
   SIGMA = 0.05
   EDIFF = 1E-4
   ALGO = Normal
   ISTART = 2
   IBRION = -1
   NSW = 0
   ISYM = 0
   DIPOL = 0.5 0.5 0.5
   IDIPOL = 3
   LDIPOL = .TRUE.
   LHFCALC = .TRUE.
   GGA = PE
   IVDW = 21
   VDW_SR = 0.96
   ENCUT = 450
   PREC = Normal
   LASPH = .TRUE.
   LREAL = Auto
   ISPIN = 1
   NELM = 200
   NELMIN = 8
   NCORE = 1
   KPAR = 1
   LWAVE = .FALSE.
   LCHARG = .FALSE.

 POTCAR:    PAW_PBE Mg_pv 13Apr2007               
 POTCAR:    PAW_PBE O 08Apr2002                   
 POTCAR:    PAW_PBE Mg_pv 13Apr2007               
   SHA256 =  f474ac0dd33840b9ae76c01d57fea79fdf77cdfbb07d5ade72c65f83c709b62b Mg_pv/POTCAR          
   COPYR  = (c) Copyright 13Apr2007 Georg Kresse                                                    
   COPYR  = This file is part of the software VASP. Any use, copying, and all other rights are regul
   COPYR  = If you do not have a valid VASP license, you may not use, copy or distribute this file. 
   VRHFIN =Mg: p6s2                                                                                 
   LEXCH  = PE                                                                                      
   EATOM  =  1056.7344 eV,   77.6678 Ry                                                             
                                                                                                    
   TITEL  = PAW_PBE Mg_pv 13Apr2007                                                                 
   LULTRA =        F    use ultrasoft PP ?                                                          
   IUNSCR =        1    unscreen: 0-lin 1-nonlin 2-no                                               
   RPACOR =    1.500    partial core radius                                                         
   POMASS =   24.305; ZVAL   =    8.000    mass and valenz                                          
   RCORE  =    2.000    outmost cutoff radius                                                       
   RWIGS  =    2.000; RWIGS  =    1.058    wigner-seitz radius (au A)                               
   ENMAX  =  403.929; ENMIN  =  302.947 eV                                                          
   RCLOC  =    1.506    cutoff for local pot                                                        
   LCOR   =        T    correct aug charges                                                         
   LPAW   =        T    paw PP                                                                      
   EAUG   =  758.780                                                                                
   DEXC   =    0.000                                                                                
   RMAX   =    2.045    core radius for proj-oper                                                   
   RAUG   =    1.300    factor for augmentation sphere                                              
   RDEP   =    2.025    radius for radial grids                                                     
   RDEPT  =    1.557    core radius for aug-charge                                                  
                                                                                                    
   Atomic configuration                                                                             
    5 entries                                                                                       
     n  l   j            E        occ.                                                              
     1  0  0.50     -1259.6230   2.0000                                                             
     2  0  0.50       -79.8442   2.0000                                                             
     2  1  1.50       -46.6121   6.0000                                                             
     3  0  0.50        -4.7055   2.0000                                                             
     3  2  1.50        -1.3606   0.0000                                                             
   Description                                                                                      
     l       E           TYP  RCUT    TYP  RCUT                                                     
     1    -46.6121073     23  1.600                                                                 
     1      2.7211652     23  1.600                                                                 
     0     -4.7054661     23  2.000                                                                 
     0     61.2262170     23  2.000                                                                 
     2     -1.3605826     23  2.000                                                                 
  local pseudopotential read in
  partial core-charges read in
  partial kinetic energy density read in
  atomic valenz-charges read in
  non local Contribution for L=            1  read in
    real space projection operators read in
  non local Contribution for L=            1  read in
    real space projection operators read in
  non local Contribution for L=            0  read in
    real space projection operators read in
  non local Contribution for L=            0  read in
    real space projection operators read in
  non local Contribution for L=            2  read in
    real space projection operators read in
    PAW grid and wavefunctions read in
 
   number of l-projection  operators is LMAX  =            5
   number of lm-projection operators is LMMAX =           13
 
 POTCAR:    PAW_PBE O 08Apr2002                   
   SHA256 =  818f92134a0a090dccd8ba1447fa70422a3b330e708bb4f08108d8ae51209ddf O/POTCAR              
   COPYR  = (c) Copyright 08Apr2002 Georg Kresse                                                    
   COPYR  = This file is part of the software VASP. Any use, copying, and all other rights are regul
   COPYR  = If you do not have a valid VASP license, you may not use, copy or distribute this file. 
   VRHFIN =O: s2p4                                                                                  
   LEXCH  = PE                                                                                      
   EATOM  =   432.3788 eV,   31.7789 Ry                                                             
                                                                                                    
   TITEL  = PAW_PBE O 08Apr2002                                                                     
   LULTRA =        F    use ultrasoft PP ?                                                          
   IUNSCR =        1    unscreen: 0-lin 1-nonlin 2-no                                               
   RPACOR =    1.200    partial core radius                                                         
   POMASS =   16.000; ZVAL   =    6.000    mass and valenz                                          
   RCORE  =    1.520    outmost cutoff radius                                                       
   RWIGS  =    1.550; RWIGS  =    0.820    wigner-seitz radius (au A)                               
   ENMAX  =  400.000; ENMIN  =  300.000 eV                                                          
   ICORE  =        2    local potential                                                             
   LCOR   =        T    correct aug charges                                                         
   LPAW   =        T    paw PP                                                                      
   EAUG   =  605.392                                                                                
   DEXC   =    0.000                                                                                
   RMAX   =    1.553    core radius for proj-oper                                                   
   RAUG   =    1.300    factor for augmentation sphere                                              
   RDEP   =    1.550    radius for radial grids                                                     
   RDEPT  =    1.329    core radius for aug-charge                                                  
                                                                                                    
   Atomic configuration                                                                             
    4 entries                                                                                       
     n  l   j            E        occ.                                                              
     1  0  0.50      -514.6923   2.0000                                                             
     2  0  0.50       -23.9615   2.0000                                                             
     2  1  0.50        -9.0305   4.0000                                                             
     3  2  1.50        -9.5241   0.0000                                                             
   Description                                                                                      
     l       E           TYP  RCUT    TYP  RCUT                                                     
     0    -23.9615318     23  1.200                                                                 
     0     -9.5240782     23  1.200                                                                 
     1     -9.0304911     23  1.520                                                                 
     1      8.1634956     23  1.520                                                                 
     2     -9.5240782      7  1.500                                                                 
  local pseudopotential read in
  partial core-charges read in
  partial kinetic energy density read in
  kinetic energy density of atom read in
  atomic valenz-charges read in
  non local Contribution for L=            0  read in
    real space projection operators read in
  non local Contribution for L=            0  read in
    real space projection operators read in
  non local Contribution for L=            1  read in
    real space projection operators read in
  non local Contribution for L=            1  read in
    real space projection operators read in
    PAW grid and wavefunctions read in
 
   number of l-projection  operators is LMAX  =            4
   number of lm-projection operators is LMMAX =            8
 
 Optimization of the real space projectors (new method)

 maximal supplied QI-value         = 18.90
 optimisation between [QCUT,QGAM] = [ 10.77, 21.73] = [ 32.49,132.25] Ry 
 Optimized for a Real-space Cutoff    1.23 Angstroem

   l    n(q)    QCUT    max X(q) W(low)/X(q) W(high)/X(q)  e(spline) 
   1      7    10.771     2.974    0.18E-03    0.56E-05    0.13E-06
   1      7    10.771     4.279    0.39E-03    0.94E-04    0.28E-06
   0      8    10.771    16.381    0.27E-03    0.38E-03    0.44E-07
   0      8    10.771     5.611    0.18E-03    0.26E-03    0.32E-07
   2      7    10.771     4.652    0.12E-03    0.23E-03    0.45E-07
 Optimization of the real space projectors (new method)

 maximal supplied QI-value         = 24.76
 optimisation between [QCUT,QGAM] = [ 10.64, 21.54] = [ 31.73,129.89] Ry 
 Optimized for a Real-space Cutoff    1.23 Angstroem

   l    n(q)    QCUT    max X(q) W(low)/X(q) W(high)/X(q)  e(spline) 
   0      8    10.645    20.381    0.38E-03    0.60E-03    0.15E-06
   0      8    10.645    15.268    0.40E-03    0.65E-03    0.17E-06
   1      7    10.645     5.964    0.30E-03    0.63E-03    0.18E-06
   1      7    10.645     5.382    0.24E-03    0.53E-03    0.16E-06
  PAW_PBE Mg_pv 13Apr2007               :
 energy of atom  1       EATOM=-1056.7344
 kinetic energy error for atom=    0.0368 (will be added to EATOM!!)
  PAW_PBE O 08Apr2002                   :
 energy of atom  2       EATOM= -432.3788
 kinetic energy error for atom=    0.0389 (will be added to EATOM!!)
 
 
 POSCAR: Mg  O
  positions in direct lattice
  No initial velocities read in
 exchange correlation table for  LEXCH =        8
   RHO(1)=    0.500       N(1)  =     2000
   RHO(2)=  100.500       N(2)  =     4000
 


--------------------------------------------------------------------------------------------------------


 ion  position               nearest neighbor table
   1  0.000  0.750  0.352-  33 2.11  35 2.11  36 2.11  43 2.11  52 2.11
   2  0.250  0.000  0.352-  34 2.11  35 2.11  36 2.11  44 2.11  51 2.11
   3  0.000  0.000  0.451-  39 2.11  35 2.11  33 2.11  34 2.11  41 2.11  50 2.11
   4  0.250  0.750  0.451-  36 2.11  34 2.11  33 2.11  42 2.11  49 2.11  40 2.13
   5  1.000  0.750  0.549-  33 2.10  47 2.11  39 2.11  56 2.13  40 2.13  37 2.14
   6  0.252  0.001  0.551-  55 2.09  48 2.10  38 2.11  40 2.12  39 2.13  34 2.14
   7  0.000  0.002  0.649-  45 2.09  38 2.10  54 2.10  39 2.12  37 2.13
   8  0.237  0.750  0.647-  37 2.00  40 2.08  46 2.10  38 2.10  53 2.22
   9  0.000  0.250  0.352-  41 2.11  35 2.11  43 2.11  44 2.11  60 2.11
  10  0.250  0.500  0.352-  42 2.11  36 2.11  43 2.11  44 2.11  59 2.11
  11  0.000  0.500  0.451-  47 2.11  43 2.11  42 2.11  33 2.11  41 2.11  58 2.11
  12  0.250  0.250  0.451-  44 2.11  41 2.11  42 2.11  34 2.11  57 2.11  48 2.12
  13  0.000  0.250  0.550-  41 2.11  48 2.11  64 2.11  47 2.11  39 2.11  45 2.14
  14  0.252  0.499  0.551-  63 2.09  48 2.10  46 2.11  40 2.12  47 2.13  42 2.14
  15  0.000  0.498  0.649-  45 2.09  46 2.10  62 2.10  47 2.12  37 2.13
  16  0.248  0.250  0.649-  45 2.09  48 2.11  46 2.12  38 2.12  61 2.13
  17  0.500  0.750  0.352-  49 2.11  36 2.11  51 2.11  52 2.11  59 2.11
  18  0.750  0.000  0.352-  50 2.11  35 2.11  51 2.11  52 2.11  60 2.11
  19  0.500  0.000  0.451-  51 2.11  49 2.11  50 2.11  34 2.11  57 2.11  55 2.15
  20  0.750  0.750  0.451-  52 2.11  49 2.11  50 2.11  33 2.11  58 2.11  56 2.13
  21  0.500  0.750  0.548-  49 2.07  56 2.09  40 2.09  63 2.09  55 2.09
  22  0.748  0.001  0.551-  55 2.09  64 2.10  54 2.11  56 2.12  39 2.13  50 2.14
  23  0.500  0.011  0.658-  61 2.02  38 2.14  54 2.14  53 2.21
  24  0.763  0.750  0.647-  37 2.00  56 2.08  62 2.10  54 2.10  53 2.22
  25  0.500  0.250  0.352-  57 2.11  51 2.11  44 2.11  59 2.11  60 2.11
  26  0.750  0.500  0.352-  58 2.11  52 2.11  43 2.11  59 2.11  60 2.11
  27  0.500  0.500  0.451-  59 2.11  49 2.11  57 2.11  58 2.11  42 2.11  63 2.15
  28  0.750  0.250  0.451-  60 2.11  50 2.11  57 2.11  58 2.11  41 2.11  64 2.12
  29  0.500  0.250  0.551-  48 2.11  64 2.11  63 2.13  55 2.13  61 2.14  57 2.15
  30  0.748  0.499  0.551-  63 2.09  64 2.10  62 2.11  56 2.12  47 2.13  58 2.14
  31  0.500  0.489  0.658-  61 2.02  46 2.14  62 2.14  53 2.21
  32  0.752  0.250  0.649-  45 2.09  64 2.11  62 2.12  54 2.12  61 2.13
  33  0.000  0.750  0.451-   5 2.10   1 2.11   4 2.11   3 2.11  11 2.11  20 2.11
  34  0.250  0.000  0.451-   2 2.11   3 2.11   4 2.11  12 2.11  19 2.11   6 2.14
  35  0.000  0.000  0.352-   3 2.11   2 2.11   1 2.11   9 2.11  18 2.11
  36  0.250  0.750  0.352-   4 2.11   2 2.11   1 2.11  10 2.11  17 2.11
  37  0.000  0.750  0.649-   8 2.00  24 2.00   7 2.13  15 2.13   5 2.14
  38  0.248  0.999  0.650-   7 2.10   8 2.10   6 2.11  16 2.12  23 2.14
  39  0.000  0.999  0.549-   5 2.11   3 2.11  13 2.11   7 2.12   6 2.13  22 2.13
  40  0.252  0.750  0.550-   8 2.08  21 2.09   6 2.12  14 2.12   4 2.13   5 2.13
  41  0.000  0.250  0.451-   9 2.11   3 2.11  11 2.11  12 2.11  28 2.11  13 2.11
  42  0.250  0.500  0.451-  10 2.11   4 2.11  11 2.11  12 2.11  27 2.11  14 2.14
  43  0.000  0.500  0.352-  11 2.11   9 2.11  10 2.11   1 2.11  26 2.11
  44  0.250  0.250  0.352-  12 2.11   9 2.11  10 2.11   2 2.11  25 2.11
  45  0.000  0.250  0.650-  16 2.09  32 2.09   7 2.09  15 2.09  13 2.14
  46  0.248  0.501  0.650-  15 2.10   8 2.10  14 2.11  16 2.12  31 2.14
  47  0.000  0.501  0.549-   5 2.11  11 2.11  13 2.11  15 2.12  14 2.13  30 2.13
  48  0.251  0.250  0.550-   6 2.10  14 2.10  29 2.11  16 2.11  13 2.11  12 2.12
  49  0.500  0.750  0.451-  21 2.07  17 2.11  19 2.11  20 2.11   4 2.11  27 2.11
  50  0.750  0.000  0.451-  18 2.11   3 2.11  19 2.11  20 2.11  28 2.11  22 2.14
  51  0.500  0.000  0.352-  19 2.11  17 2.11  18 2.11   2 2.11  25 2.11
  52  0.750  0.750  0.352-  20 2.11  17 2.11  18 2.11   1 2.11  26 2.11
  53  0.500  0.750  0.655-  23 2.21  31 2.21   8 2.22  24 2.22
  54  0.752  0.999  0.650-   7 2.10  24 2.10  22 2.11  32 2.12  23 2.14
  55  0.500  0.998  0.551-  21 2.09   6 2.09  22 2.09  29 2.13  19 2.15
  56  0.748  0.750  0.550-  24 2.08  21 2.09  22 2.12  30 2.12  20 2.13   5 2.13
  57  0.500  0.250  0.451-  25 2.11  19 2.11  12 2.11  27 2.11  28 2.11  29 2.15
  58  0.750  0.500  0.451-  26 2.11  20 2.11  11 2.11  27 2.11  28 2.11  30 2.14
  59  0.500  0.500  0.352-  27 2.11  17 2.11  25 2.11  26 2.11  10 2.11
  60  0.750  0.250  0.352-  28 2.11  18 2.11  25 2.11  26 2.11   9 2.11
  61  0.500  0.250  0.652-  23 2.02  31 2.02  32 2.13  16 2.13  29 2.14
  62  0.752  0.501  0.650-  15 2.10  24 2.10  30 2.11  32 2.12  31 2.14
  63  0.500  0.502  0.551-  21 2.09  14 2.09  30 2.09  29 2.13  27 2.15
  64  0.749  0.250  0.550-  22 2.10  30 2.10  29 2.11  32 2.11  13 2.11  28 2.12
 

IMPORTANT INFORMATION: All symmetrisations will be switched off!
NOSYMM: (Re-)initialisation of all symmetry stuff for point group C_1.


----------------------------------------------------------------------------------------

                                     Primitive cell                                     

  volume of cell :    1519.8199

  direct lattice vectors                    reciprocal lattice vectors
     8.440984654  0.000000000  0.000000000     0.118469591  0.000000000  0.000000000
     0.000000000  8.440984654  0.000000000     0.000000000  0.118469591  0.000000000
     0.000000000  0.000000000 21.330738491     0.000000000  0.000000000  0.046880702

  length of vectors
     8.440984654  8.440984654 21.330738491     0.118469591  0.118469591  0.046880702

  position of ions in fractional coordinates (direct lattice)
     0.000000000  0.750000000  0.351605267
     0.250000000  0.000000000  0.351605267
     0.000000000  0.000000000  0.450535089
     0.250000000  0.750000000  0.450535089
     0.999999975  0.749999946  0.548865087
     0.252039878  0.000756628  0.550788885
     0.000000022  0.002311195  0.648546918
     0.237174188  0.749999934  0.647363126
     0.000000000  0.250000000  0.351605267
     0.250000000  0.500000000  0.351605267
     0.000000000  0.500000000  0.450535089
     0.250000000  0.250000000  0.450535089
     0.000000013  0.249999998  0.549624541
     0.252039900  0.499243377  0.550788959
     0.000000021  0.497688821  0.648546972
     0.247666318  0.250000068  0.648931672
     0.500000000  0.750000000  0.351605267
     0.750000000  0.000000000  0.351605267
     0.500000000  0.000000000  0.450535089
     0.750000000  0.750000000  0.450535089
     0.500000019  0.750000015  0.547754495
     0.747960121  0.000756607  0.550788926
     0.499999989  0.011207993  0.658121991
     0.762825847  0.749999939  0.647363220
     0.500000000  0.250000000  0.351605267
     0.750000000  0.500000000  0.351605267
     0.500000000  0.500000000  0.450535089
     0.750000000  0.250000000  0.450535089
     0.499999992  0.250000035  0.551140650
     0.747960100  0.499243403  0.550789001
     0.499999989  0.488792575  0.658122307
     0.752333689  0.250000066  0.648931633
     0.000000000  0.750000000  0.450535089
     0.250000000  0.000000000  0.450535089
     0.000000000  0.000000000  0.351605267
     0.250000000  0.750000000  0.351605267
     0.000000022  0.750000036  0.649408351
     0.248158655  0.998502614  0.649732587
     0.000000003  0.999457034  0.549345342
     0.252314547  0.750000035  0.550267426
     0.000000000  0.250000000  0.450535089
     0.250000000  0.500000000  0.450535089
     0.000000000  0.500000000  0.351605267
     0.250000000  0.250000000  0.351605267
     0.000000004  0.249999984  0.650138735
     0.248158633  0.501497394  0.649732528
     0.000000002  0.500542928  0.549345336
     0.250533587  0.249999977  0.549905895
     0.500000000  0.750000000  0.450535089
     0.750000000  0.000000000  0.450535089
     0.500000000  0.000000000  0.351605267
     0.750000000  0.750000000  0.351605267
     0.499999960  0.750000818  0.655054079
     0.751841360  0.998502595  0.649732592
     0.499999996  0.997699832  0.551095612
     0.747685455  0.750000036  0.550267463
     0.500000000  0.250000000  0.450535089
     0.750000000  0.500000000  0.450535089
     0.500000000  0.500000000  0.351605267
     0.750000000  0.250000000  0.351605267
     0.500000007  0.249999918  0.651663796
     0.751841378  0.501497418  0.649732540
     0.499999996  0.502300219  0.551095607
     0.749466420  0.249999975  0.549905909

  ion indices of the primitive-cell ions
   primitive index   ion index
                 1           1
                 2           2
                 3           3
                 4           4
                 5           5
                 6           6
                 7           7
                 8           8
                 9           9
                10          10
                11          11
                12          12
                13          13
                14          14
                15          15
                16          16
                17          17
                18          18
                19          19
                20          20
                21          21
                22          22
                23          23
                24          24
                25          25
                26          26
                27          27
                28          28
                29          29
                30          30
                31          31
                32          32
                33          33
                34          34
                35          35
                36          36
                37          37
                38          38
                39          39
                40          40
                41          41
                42          42
                43          43
                44          44
                45          45
                46          46
                47          47
                48          48
                49          49
                50          50
                51          51
                52          52
                53          53
                54          54
                55          55
                56          56
                57          57
                58          58
                59          59
                60          60
                61          61
                62          62
                63          63
                64          64

----------------------------------------------------------------------------------------

 
 
 KPOINTS: pymatgen v2020.8.13 with grid density = 

Automatic generation of k-mesh.
 Grid dimensions read from file:
 generate k-points for:    2    2    1

 Generating k-lattice:

  Cartesian coordinates                     Fractional coordinates (reciprocal lattice)
     0.059234796  0.000000000  0.000000000     0.500000000  0.000000000  0.000000000
     0.000000000  0.059234796  0.000000000     0.000000000  0.500000000  0.000000000
     0.000000000  0.000000000  0.046880702     0.000000000  0.000000000  1.000000000

  Length of vectors
     0.059234796  0.059234796  0.046880702

  Shift w.r.t. Gamma in fractional coordinates (k-lattice)
     0.000000000  0.000000000  0.000000000

 
 Subroutine IBZKPT returns following result:
 ===========================================
 
 Found      4 irreducible k-points:
 
 Following reciprocal coordinates:
            Coordinates               Weight
  0.000000  0.000000  0.000000      1.000000
  0.500000  0.000000  0.000000      1.000000
  0.000000  0.500000  0.000000      1.000000
  0.500000  0.500000  0.000000      1.000000
 
 Following cartesian coordinates:
            Coordinates               Weight
  0.000000  0.000000  0.000000      1.000000
  0.059235  0.000000  0.000000      1.000000
  0.000000  0.059235  0.000000      1.000000
  0.059235  0.059235  0.000000      1.000000
 
 
 Subroutine IBZKPT_HF returns following result:
 ==============================================
 
 Found      4 k-points in 1st BZ
 the following      4 k-points will be used (e.g. in the exchange kernel)
 Following reciprocal coordinates:   # in IRBZ
  0.000000  0.000000  0.000000    0.25000000   1 t-inv F
  0.500000  0.000000  0.000000    0.25000000   2 t-inv F
  0.000000  0.500000  0.000000    0.25000000   3 t-inv F
  0.500000  0.500000  0.000000    0.25000000   4 t-inv F


--------------------------------------------------------------------------------------------------------




 Dimension of arrays:
   k-points           NKPTS =      4   k-points in BZ     NKDIM =      4   number of bands    NBANDS=    268
   number of dos      NEDOS =    301   number of ions     NIONS =     64
   non local maximal  LDIM  =      5   non local SUM 2l+1 LMDIM =     13
   total plane-waves  NPLWV = 258048
   max r-space proj   IRMAX =   1363   max aug-charges    IRDMAX=   3545
   dimension x,y,z NGX =    48 NGY =   48 NGZ =  112
   dimension x,y,z NGXF=    96 NGYF=   96 NGZF=  224
   support grid    NGXF=    96 NGYF=   96 NGZF=  224
   ions per type =              32  32
   NGX,Y,Z   is equivalent  to a cutoff of   9.45,  9.45,  8.73 a.u.
   NGXF,Y,Z  is equivalent  to a cutoff of  18.91, 18.91, 17.46 a.u.

 SYSTEM =  Oxide-Surface                           
 POSCAR =  Mg  O                                   

     8.440984654  8.440984654 21.330738491     0.118469591  0.118469591  0.046880702


 
 old parameters found on file WAVECAR:
  energy-cutoff  :      450.00
  volume of cell :     1519.82
      direct lattice vectors                 reciprocal lattice vectors
     8.440984654  0.000000000  0.000000000     0.118469591  0.000000000  0.000000000
     0.000000000  8.440984654  0.000000000     0.000000000  0.118469591  0.000000000
     0.000000000  0.000000000 21.330738491     0.000000000  0.000000000  0.046880702

  length of vectors

 
 k-points in units of 2pi/SCALE and weight: pymatgen v2020.8.13 with grid density = 
   0.00000000  0.00000000  0.00000000       0.250
   0.05923480  0.00000000  0.00000000       0.250
   0.00000000  0.05923480  0.00000000       0.250
   0.05923480  0.05923480  0.00000000       0.250
 
 k-points in reciprocal lattice and weights: pymatgen v2020.8.13 with grid density = 
   0.00000000  0.00000000  0.00000000       0.250
   0.50000000  0.00000000  0.00000000       0.250
   0.00000000  0.50000000  0.00000000       0.250
   0.50000000  0.50000000  0.00000000       0.250
 
 position of ions in fractional coordinates (direct lattice) 
   0.00000000  0.75000000  0.35160527
   0.25000000  0.00000000  0.35160527
   0.00000000  0.00000000  0.45053509
   0.25000000  0.75000000  0.45053509
   0.99999998  0.74999995  0.54886509
   0.25203988  0.00075663  0.55078888
   0.00000002  0.00231120  0.64854692
   0.23717419  0.74999993  0.64736313
   0.00000000  0.25000000  0.35160527
   0.25000000  0.50000000  0.35160527
   0.00000000  0.50000000  0.45053509
   0.25000000  0.25000000  0.45053509
   0.00000001  0.25000000  0.54962454
   0.25203990  0.49924338  0.55078896
   0.00000002  0.49768882  0.64854697
   0.24766632  0.25000007  0.64893167
   0.50000000  0.75000000  0.35160527
   0.75000000  0.00000000  0.35160527
   0.50000000  0.00000000  0.45053509
   0.75000000  0.75000000  0.45053509
   0.50000002  0.75000002  0.54775450
   0.74796012  0.00075661  0.55078893
   0.49999999  0.01120799  0.65812199
   0.76282585  0.74999994  0.64736322
   0.50000000  0.25000000  0.35160527
   0.75000000  0.50000000  0.35160527
   0.50000000  0.50000000  0.45053509
   0.75000000  0.25000000  0.45053509
   0.49999999  0.25000003  0.55114065
   0.74796010  0.49924340  0.55078900
   0.49999999  0.48879258  0.65812231
   0.75233369  0.25000007  0.64893163
   0.00000000  0.75000000  0.45053509
   0.25000000  0.00000000  0.45053509
   0.00000000  0.00000000  0.35160527
   0.25000000  0.75000000  0.35160527
   0.00000002  0.75000004  0.64940835
   0.24815866  0.99850261  0.64973259
   0.00000000  0.99945703  0.54934534
   0.25231455  0.75000004  0.55026743
   0.00000000  0.25000000  0.45053509
   0.25000000  0.50000000  0.45053509
   0.00000000  0.50000000  0.35160527
   0.25000000  0.25000000  0.35160527
   0.00000000  0.24999998  0.65013873
   0.24815863  0.50149739  0.64973253
   0.00000000  0.50054293  0.54934534
   0.25053359  0.24999998  0.54990590
   0.50000000  0.75000000  0.45053509
   0.75000000  0.00000000  0.45053509
   0.50000000  0.00000000  0.35160527
   0.75000000  0.75000000  0.35160527
   0.49999996  0.75000082  0.65505408
   0.75184136  0.99850259  0.64973259
   0.50000000  0.99769983  0.55109561
   0.74768545  0.75000004  0.55026746
   0.50000000  0.25000000  0.45053509
   0.75000000  0.50000000  0.45053509
   0.50000000  0.50000000  0.35160527
   0.75000000  0.25000000  0.35160527
   0.50000001  0.24999992  0.65166380
   0.75184138  0.50149742  0.64973254
   0.50000000  0.50230022  0.55109561
   0.74946642  0.24999998  0.54990591
 
 position of ions in cartesian coordinates  (Angst):
   0.00000000  6.33073849  7.50000000
   2.11024616  0.00000000  7.50000000
   0.00000000  0.00000000  9.61024616
   2.11024616  6.33073849  9.61024616
   8.44098444  6.33073804 11.70769764
   2.12746474  0.00638669 11.74873367
   0.00000019  0.01950876 13.83398470
   2.00198368  6.33073794 13.80873355
   0.00000000  2.11024616  7.50000000
   2.11024616  4.22049233  7.50000000
   0.00000000  4.22049233  9.61024616
   2.11024616  2.11024616  9.61024616
   0.00000011  2.11024615 11.72389735
   2.12746493  4.21410568 11.74873525
   0.00000018  4.20098370 13.83398587
   2.09054759  2.11024674 13.84219179
   4.22049233  6.33073849  7.50000000
   6.33073849  0.00000000  7.50000000
   4.22049233  0.00000000  9.61024616
   6.33073849  6.33073849  9.61024616
   4.22049249  6.33073862 11.68400790
   6.31351991  0.00638650 11.74873453
   4.22049223  0.09460649 14.03822808
   6.43900126  6.33073797 13.80873555
   4.22049233  2.11024616  7.50000000
   6.33073849  4.22049233  7.50000000
   4.22049233  4.22049233  9.61024616
   6.33073849  2.11024616  9.61024616
   4.22049226  2.11024646 11.75623708
   6.31351973  4.21410590 11.74873614
   4.22049223  4.12589063 14.03823482
   6.35043712  2.11024672 13.84219097
   0.00000000  6.33073849  9.61024616
   2.11024616  0.00000000  9.61024616
   0.00000000  0.00000000  7.50000000
   2.11024616  6.33073849  7.50000000
   0.00000018  6.33073879 13.85235970
   2.09470340  8.42834524 13.85927591
   0.00000002  8.43640149 11.71794183
   2.12978322  6.33073879 11.73761057
   0.00000000  2.11024616  9.61024616
   2.11024616  4.22049233  9.61024616
   0.00000000  4.22049233  7.50000000
   2.11024616  2.11024616  7.50000000
   0.00000003  2.11024603 13.86793934
   2.09470322  4.23313180 13.85927465
   0.00000001  4.22507517 11.71794171
   2.11475016  2.11024597 11.72989885
   4.22049233  6.33073849  9.61024616
   6.33073849  0.00000000  9.61024616
   4.22049233  0.00000000  7.50000000
   6.33073849  6.33073849  7.50000000
   4.22049199  6.33074540 13.97278725
   6.34628139  8.42834508 13.85927601
   4.22049229  8.42156897 11.75527639
   6.31120145  6.33073879 11.73761136
   4.22049233  2.11024616  9.61024616
   6.33073849  4.22049233  9.61024616
   4.22049233  4.22049233  7.50000000
   6.33073849  2.11024616  7.50000000
   4.22049238  2.11024547 13.90047003
   6.34628153  4.23313201 13.85927490
   4.22049229  4.23990844 11.75527627
   6.32623455  2.11024596 11.72989914
 


--------------------------------------------------------------------------------------------------------

--------------------------------------- Iteration      FINAL  ---------------------------------------


--------------------OUTCAR has been truncated-------------------------


--------------------OUTCAR has been truncated-------------------------


--------------------OUTCAR has been truncated-------------------------


--------------------OUTCAR has been truncated-------------------------


--------------------OUTCAR has been truncated-------------------------


--------------------OUTCAR has been truncated-------------------------


--------------------OUTCAR has been truncated-------------------------


--------------------OUTCAR has been truncated-------------------------


--------------------OUTCAR has been truncated-------------------------


--------------------OUTCAR has been truncated-------------------------


    MIXING:  cpu time      0.0041: real time      0.0041
    OFIELD:  cpu time      0.0000: real time      0.0000

  Hirshfeld charges:
            ion         q(e)     
   ------------------------------
      1     Mg          0.438
      2     Mg          0.437
      3     Mg          0.346
      4     Mg          0.349
      5     Mg          0.353
      6     Mg          0.347
      7     Mg          0.434
      8     Mg          0.417
      9     Mg          0.437
     10     Mg          0.437
     11     Mg          0.346
     12     Mg          0.348
     13     Mg          0.353
     14     Mg          0.347
     15     Mg          0.434
     16     Mg          0.438
     17     Mg          0.438
     18     Mg          0.437
     19     Mg          0.347
     20     Mg          0.349
     21     Mg          0.348
     22     Mg          0.347
     23     Mg          0.465
     24     Mg          0.417
     25     Mg          0.437
     26     Mg          0.437
     27     Mg          0.347
     28     Mg          0.348
     29     Mg          0.355
     30     Mg          0.347
     31     Mg          0.465
     32     Mg          0.438
     33     O          -0.358
     34     O          -0.359
     35     O          -0.426
     36     O          -0.426
     37     O          -0.422
     38     O          -0.426
     39     O          -0.357
     40     O          -0.359
     41     O          -0.359
     42     O          -0.359
     43     O          -0.426
     44     O          -0.427
     45     O          -0.425
     46     O          -0.426
     47     O          -0.357
     48     O          -0.357
     49     O          -0.357
     50     O          -0.359
     51     O          -0.426
     52     O          -0.426
     53     O          -0.456
     54     O          -0.426
     55     O          -0.365
     56     O          -0.359
     57     O          -0.359
     58     O          -0.359
     59     O          -0.426
     60     O          -0.427
     61     O          -0.418
     62     O          -0.426
     63     O          -0.365
     64     O          -0.357

  Hirshfeld-I charges:
            ion         q(e)        dq(e)    
   ------------------------------------------
      1     Mg          2.070     -0.341E-06
      2     Mg          2.070     -0.121E-05
      3     Mg          2.070      0.234E-05
      4     Mg          2.068      0.261E-05
      5     Mg          2.055      0.125E-05
      6     Mg          2.125     -0.163E-05
      7     Mg          2.084      0.125E-06
      8     Mg          2.068      0.194E-06
      9     Mg          2.070     -0.551E-06
     10     Mg          2.070     -0.121E-05
     11     Mg          2.070      0.234E-05
     12     Mg          2.069      0.200E-05
     13     Mg          2.078     -0.233E-06
     14     Mg          2.125     -0.163E-05
     15     Mg          2.084      0.125E-06
     16     Mg          2.086     -0.644E-07
     17     Mg          2.070     -0.270E-06
     18     Mg          2.070     -0.121E-05
     19     Mg          2.065      0.205E-05
     20     Mg          2.068      0.261E-05
     21     Mg          2.114     -0.718E-06
     22     Mg          2.125     -0.163E-05
     23     Mg          2.076      0.365E-07
     24     Mg          2.068      0.194E-06
     25     Mg          2.070      0.107E-06
     26     Mg          2.070     -0.121E-05
     27     Mg          2.065      0.205E-05
     28     Mg          2.069      0.200E-05
     29     Mg          2.122     -0.127E-05
     30     Mg          2.125     -0.163E-05
     31     Mg          2.076      0.365E-07
     32     Mg          2.086     -0.644E-07
     33     O          -2.137     -0.259E-04
     34     O          -2.127     -0.225E-05
     35     O          -2.042      0.592E-05
     36     O          -2.041      0.775E-05
     37     O          -2.071     -0.484E-05
     38     O          -2.037      0.150E-05
     39     O          -2.136      0.385E-05
     40     O          -2.115      0.325E-05
     41     O          -2.127     -0.199E-04
     42     O          -2.127     -0.225E-05
     43     O          -2.042      0.592E-05
     44     O          -2.042      0.641E-05
     45     O          -2.064     -0.578E-05
     46     O          -2.037      0.150E-05
     47     O          -2.136      0.385E-05
     48     O          -2.139      0.126E-04
     49     O          -2.154     -0.274E-04
     50     O          -2.127     -0.225E-05
     51     O          -2.041      0.585E-05
     52     O          -2.041      0.775E-05
     53     O          -1.885     -0.773E-05
     54     O          -2.037      0.150E-05
     55     O          -2.054      0.212E-04
     56     O          -2.115      0.325E-05
     57     O          -2.135     -0.319E-04
     58     O          -2.127     -0.225E-05
     59     O          -2.041      0.585E-05
     60     O          -2.042      0.641E-05
     61     O          -2.153     -0.125E-04
     62     O          -2.037      0.150E-05
     63     O          -2.054      0.212E-04
     64     O          -2.139      0.126E-04

   Hirshfeld-I converged in  18 cycles. Convergence criterion |dq|< 0.500E-04 e

  Atomic reference data used in the T-S method for vdW correction:
            C6at              R0at           ALPHAat      REFSTATE
            (au)              (au)            (au)                
   ---------------------------------------------------------------
   Mg        627.000          4.271         71.000         0
   O          15.600          3.194          5.400         0

  Tkatchenko/Scheffler method for vdW energy calculation
  ---------------------------------------------------------------------------------------------

  Parameters of vdW forcefield:
            C6ts              R0ts           ALPHAts        RELVOL
            (au)              (au)            (au)                
   ---------------------------------------------------------------
   Mg          1.373          1.539          3.322          0.04679039
   Mg          1.374          1.539          3.323          0.04680437
   Mg          1.317          1.528          3.254          0.04582921
   Mg          1.319          1.529          3.257          0.04587431
   Mg          1.330          1.531          3.270          0.04605496
   Mg          1.303          1.526          3.236          0.04558368
   Mg          1.370          1.538          3.318          0.04673660
   Mg          1.370          1.538          3.319          0.04674515
   Mg          1.373          1.539          3.323          0.04679723
   Mg          1.374          1.539          3.323          0.04680437
   Mg          1.317          1.528          3.254          0.04582921
   Mg          1.318          1.529          3.255          0.04584560
   Mg          1.319          1.529          3.256          0.04585931
   Mg          1.303          1.526          3.236          0.04558367
   Mg          1.370          1.538          3.318          0.04673659
   Mg          1.373          1.539          3.322          0.04678923
   Mg          1.372          1.539          3.321          0.04677962
   Mg          1.374          1.539          3.323          0.04680437
   Mg          1.325          1.530          3.264          0.04597700
   Mg          1.319          1.529          3.257          0.04587431
   Mg          1.307          1.526          3.241          0.04565310
   Mg          1.303          1.526          3.236          0.04558367
   Mg          1.384          1.541          3.335          0.04697736
   Mg          1.370          1.538          3.319          0.04674515
   Mg          1.373          1.539          3.322          0.04679499
   Mg          1.374          1.539          3.323          0.04680437
   Mg          1.325          1.530          3.264          0.04597700
   Mg          1.318          1.529          3.255          0.04584560
   Mg          1.307          1.526          3.242          0.04565649
   Mg          1.303          1.526          3.236          0.04558367
   Mg          1.384          1.541          3.335          0.04697739
   Mg          1.373          1.539          3.322          0.04678923
   O         240.812          5.039         21.216          3.92893745
   O         239.300          5.034         21.150          3.91658964
   O         195.605          4.868         19.121          3.54100245
   O         195.330          4.867         19.108          3.53851238
   O         198.818          4.881         19.278          3.56996777
   O         196.963          4.873         19.188          3.55327294
   O         241.583          5.042         21.250          3.93522180
   O         237.409          5.027         21.066          3.90108411
   O         238.624          5.032         21.120          3.91104681
   O         239.300          5.034         21.150          3.91658906
   O         195.605          4.868         19.121          3.54100373
   O         195.844          4.869         19.133          3.54316952
   O         199.567          4.884         19.314          3.57668076
   O         196.964          4.873         19.188          3.55328007
   O         241.583          5.042         21.250          3.93522210
   O         242.563          5.045         21.293          3.94319979
   O         244.856          5.053         21.394          3.96179036
   O         239.300          5.034         21.150          3.91658954
   O         195.533          4.867         19.118          3.54035539
   O         195.330          4.867         19.108          3.53851241
   O         173.998          4.774         18.034          3.33971124
   O         196.963          4.873         19.188          3.55327377
   O         226.067          4.987         20.556          3.80675100
   O         237.409          5.027         21.066          3.90108329
   O         241.266          5.041         21.236          3.93263949
   O         239.300          5.034         21.150          3.91658886
   O         195.535          4.867         19.118          3.54036592
   O         195.844          4.869         19.133          3.54317003
   O         215.295          4.946         20.061          3.71495298
   O         196.964          4.873         19.188          3.55328068
   O         226.066          4.987         20.556          3.80675041
   O         242.563          5.045         21.293          3.94319932

  vdW correction parametrized for the method ðVS5    þ

  IVDW =  21
  VDW_RADIUS =    50.000 A
  VDW_IDAMPF =  0
  VDW_S6 =     1.000
  VDW_SR =     0.960
  VDW_D =    20.000
  LVDW_ONECELL = F F F
  LVDW_SAMETYPE T T
  LVDW_EWALD = F

  Number of pair interactions contributing to vdW energy:  723252
  Edisp (eV):   -3.83949
    FORVDW:  cpu time    100.8791: real time    101.1493

 VOLUME and BASIS-vectors are now :
 -----------------------------------------------------------------------------
  energy-cutoff  :      450.00
  volume of cell :     1519.82
      direct lattice vectors                 reciprocal lattice vectors
     8.440984654  0.000000000  0.000000000     0.118469591  0.000000000  0.000000000
     0.000000000  8.440984654  0.000000000     0.000000000  0.118469591  0.000000000
     0.000000000  0.000000000 21.330738491     0.000000000  0.000000000  0.046880702

  length of vectors
     8.440984654  8.440984654 21.330738491     0.118469591  0.118469591  0.046880702


 FORCES acting on ions
    electron-ion (+dipol)            ewald-force                    non-local-force                 convergence-correction
 -----------------------------------------------------------------------------------------------
   0.137E-04 0.217E-04 0.207E+04   -.148E-04 -.216E-04 -.206E+04   0.170E-06 -.178E-05 -.669E+01   0.895E-06 0.212E-05 -.243E+00
   -.640E+00 -.264E+00 0.207E+04   0.653E+00 0.281E+00 -.206E+04   -.864E-02 -.114E-01 -.678E+01   -.691E-05 0.187E-04 -.243E+00
   0.646E-04 -.681E+00 0.685E+03   -.688E-04 0.710E+00 -.685E+03   0.250E-05 -.172E-01 0.334E+00   -.397E-06 0.473E-04 -.932E-01
   -.110E+01 0.126E-03 0.680E+03   0.110E+01 -.133E-03 -.681E+03   -.748E-02 0.394E-05 0.525E+00   0.675E-04 0.131E-06 -.933E-01
   0.300E-04 0.279E-04 -.663E+03   -.380E-04 -.202E-04 0.662E+03   0.674E-05 -.126E-05 0.524E+00   0.122E-06 -.282E-06 0.862E-01
   -.960E+01 0.278E+01 -.692E+03   0.107E+02 -.319E+01 0.692E+03   -.876E+00 0.199E+00 -.623E+00   -.571E-04 0.275E-04 0.901E-01
   0.570E-05 0.135E+01 -.205E+04   -.847E-06 -.750E+00 0.204E+04   -.541E-05 -.580E+00 0.617E+01   0.953E-06 0.758E-03 0.239E+00
   -.508E+02 0.951E-04 -.203E+04   0.516E+02 -.306E-04 0.202E+04   0.734E+00 -.333E-04 0.595E+01   0.374E-03 0.841E-07 0.236E+00
   0.140E-04 -.188E-04 0.207E+04   -.148E-04 0.221E-04 -.206E+04   -.992E-06 -.238E-05 -.670E+01   0.217E-05 -.145E-06 -.243E+00
   -.640E+00 0.264E+00 0.207E+04   0.653E+00 -.281E+00 -.206E+04   -.864E-02 0.114E-01 -.678E+01   -.386E-05 -.203E-04 -.243E+00
   0.649E-04 0.681E+00 0.685E+03   -.707E-04 -.710E+00 -.685E+03   0.340E-05 0.172E-01 0.334E+00   0.102E-05 -.464E-04 -.932E-01
   -.367E+01 -.124E-03 0.681E+03   0.385E+01 0.133E-03 -.681E+03   -.113E+00 -.409E-05 0.631E+00   0.366E-05 -.146E-05 -.932E-01
   0.469E-04 -.596E-04 -.676E+03   -.446E-04 0.622E-04 0.675E+03   -.304E-05 -.318E-05 0.341E+00   0.459E-06 0.341E-07 0.881E-01
   -.960E+01 -.278E+01 -.692E+03   0.107E+02 0.319E+01 0.692E+03   -.876E+00 -.199E+00 -.623E+00   -.582E-04 -.265E-04 0.901E-01
   0.134E-04 -.135E+01 -.205E+04   -.814E-05 0.750E+00 0.204E+04   -.461E-05 0.580E+00 0.617E+01   -.341E-06 -.758E-03 0.239E+00
   -.490E+01 -.838E-04 -.204E+04   0.337E+01 0.401E-04 0.203E+04   0.119E+01 0.266E-04 0.649E+01   -.113E-03 -.191E-05 0.240E+00
   -.133E-04 0.195E-04 0.207E+04   0.150E-04 -.267E-04 -.206E+04   -.124E-05 0.281E-05 -.669E+01   -.164E-07 0.320E-05 -.243E+00
   0.640E+00 -.264E+00 0.207E+04   -.653E+00 0.281E+00 -.206E+04   0.864E-02 -.114E-01 -.678E+01   0.329E-05 0.179E-04 -.243E+00
   -.663E-04 -.324E+01 0.675E+03   0.714E-04 0.344E+01 -.676E+03   -.297E-05 -.121E+00 0.495E+00   -.972E-06 -.203E-04 -.931E-01
   0.110E+01 0.127E-03 0.680E+03   -.110E+01 -.134E-03 -.681E+03   0.748E-02 0.377E-05 0.525E+00   -.672E-04 0.785E-06 -.933E-01
   -.488E-04 0.488E-03 -.701E+03   0.540E-04 -.477E-03 0.702E+03   -.459E-05 -.529E-05 0.197E+00   -.294E-06 0.420E-06 0.848E-01
   0.960E+01 0.278E+01 -.692E+03   -.107E+02 -.319E+01 0.692E+03   0.876E+00 0.199E+00 -.623E+00   0.573E-04 0.269E-04 0.901E-01
   -.395E-04 0.439E+02 -.211E+04   0.323E-04 -.459E+02 0.210E+04   0.596E-05 0.152E+00 0.702E+01   0.439E-06 0.440E-03 0.250E+00
   0.508E+02 0.104E-03 -.203E+04   -.516E+02 -.354E-04 0.202E+04   -.734E+00 -.377E-04 0.595E+01   -.374E-03 0.136E-05 0.236E+00
   -.129E-04 -.300E-04 0.206E+04   0.149E-04 0.266E-04 -.206E+04   -.204E-05 0.164E-05 -.679E+01   0.806E-06 0.101E-05 -.243E+00
   0.640E+00 0.264E+00 0.207E+04   -.653E+00 -.281E+00 -.206E+04   0.865E-02 0.114E-01 -.678E+01   0.510E-05 -.211E-04 -.243E+00
   -.708E-04 0.324E+01 0.675E+03   0.738E-04 -.344E+01 -.676E+03   -.699E-06 0.121E+00 0.495E+00   -.683E-06 0.209E-04 -.931E-01
   0.367E+01 -.127E-03 0.681E+03   -.385E+01 0.137E-03 -.681E+03   0.113E+00 -.490E-05 0.631E+00   -.366E-05 -.111E-05 -.932E-01
   -.524E-04 -.497E-03 -.698E+03   0.507E-04 0.500E-03 0.697E+03   0.183E-05 0.609E-06 0.538E+00   0.562E-07 -.120E-05 0.906E-01
   0.960E+01 -.278E+01 -.692E+03   -.107E+02 0.319E+01 0.692E+03   0.876E+00 -.199E+00 -.623E+00   0.578E-04 -.271E-04 0.901E-01
   -.341E-04 -.439E+02 -.211E+04   0.297E-04 0.459E+02 0.210E+04   0.585E-05 -.152E+00 0.702E+01   -.206E-05 -.439E-03 0.250E+00
   0.490E+01 -.958E-04 -.204E+04   -.337E+01 0.552E-04 0.203E+04   -.119E+01 0.248E-04 0.649E+01   0.114E-03 -.206E-05 0.240E+00
   0.438E-04 0.419E-04 0.515E+03   -.397E-04 -.432E-04 -.515E+03   -.314E-05 -.541E-06 0.227E+00   0.660E-06 0.504E-06 -.684E-01
   -.204E+01 -.404E+00 0.509E+03   0.201E+01 0.387E+00 -.508E+03   0.377E-01 0.180E-01 -.261E+00   0.294E-04 0.105E-04 -.683E-01
   0.217E-04 -.119E+00 0.155E+04   -.113E-04 0.128E+00 -.156E+04   -.136E-04 -.115E-01 0.310E+01   0.641E-06 0.152E-04 -.182E+00
   -.351E+00 0.186E-04 0.155E+04   0.357E+00 -.191E-04 -.155E+04   -.712E-02 0.117E-05 0.311E+01   -.141E-05 0.197E-06 -.182E+00
   -.402E-04 -.161E-04 -.155E+04   0.415E-04 0.509E-04 0.155E+04   -.457E-05 -.426E-04 -.383E+01   0.967E-06 0.357E-06 0.180E+00
   -.142E+02 0.624E+01 -.154E+04   0.153E+02 -.751E+01 0.154E+04   -.106E+01 0.152E+01 -.294E+01   -.190E-03 0.261E-03 0.180E+00
   0.381E-04 -.903E+00 -.502E+03   -.380E-04 0.772E+00 0.501E+03   0.123E-05 0.180E+00 0.525E+00   -.103E-05 0.125E-03 0.640E-01
   -.108E+02 0.143E-03 -.515E+03   0.115E+02 -.146E-03 0.514E+03   -.996E+00 -.110E-05 0.597E-01   0.277E-03 -.801E-06 0.652E-01
   0.446E-04 -.523E-04 0.513E+03   -.473E-04 0.573E-04 -.513E+03   0.221E-05 -.739E-05 0.136E+00   0.136E-05 0.112E-06 -.684E-01
   -.204E+01 0.404E+00 0.509E+03   0.201E+01 -.387E+00 -.508E+03   0.378E-01 -.180E-01 -.261E+00   0.297E-04 -.930E-05 -.683E-01
   0.308E-06 0.119E+00 0.155E+04   -.115E-04 -.128E+00 -.156E+04   0.105E-04 0.115E-01 0.310E+01   0.875E-06 -.162E-04 -.182E+00
   -.577E+00 -.165E-04 0.155E+04   0.600E+00 0.192E-04 -.155E+04   -.269E-01 -.240E-05 0.308E+01   -.151E-04 -.174E-05 -.182E+00
   0.185E-04 -.400E-05 -.155E+04   -.196E-04 -.185E-04 0.155E+04   -.146E-05 0.338E-04 -.376E+01   0.966E-06 0.164E-06 0.181E+00
   -.142E+02 -.624E+01 -.154E+04   0.153E+02 0.751E+01 0.154E+04   -.106E+01 -.152E+01 -.294E+01   -.190E-03 -.260E-03 0.180E+00
   0.340E-04 0.903E+00 -.502E+03   -.409E-04 -.772E+00 0.501E+03   0.494E-05 -.180E+00 0.525E+00   -.104E-06 -.121E-03 0.640E-01
   -.506E+01 -.162E-03 -.507E+03   0.500E+01 0.145E-03 0.506E+03   0.444E-01 0.203E-04 0.816E+00   -.707E-04 -.278E-05 0.647E-01
   -.460E-04 0.865E-04 0.515E+03   0.435E-04 -.912E-04 -.515E+03   0.219E-05 0.597E-05 0.227E+00   -.465E-06 0.151E-05 -.683E-01
   0.204E+01 -.404E+00 0.509E+03   -.201E+01 0.387E+00 -.508E+03   -.378E-01 0.180E-01 -.261E+00   -.312E-04 0.811E-05 -.683E-01
   -.919E-06 -.345E+00 0.155E+04   0.114E-04 0.371E+00 -.155E+04   -.994E-05 -.312E-01 0.308E+01   0.503E-06 -.611E-06 -.182E+00
   0.351E+00 0.175E-04 0.155E+04   -.357E+00 -.193E-04 -.155E+04   0.712E-02 0.104E-05 0.311E+01   0.773E-06 0.812E-06 -.182E+00
   -.607E-04 0.125E-02 -.156E+04   0.614E-04 -.119E-02 0.156E+04   0.385E-05 -.119E-03 -.226E+01   -.108E-06 0.986E-06 0.185E+00
   0.142E+02 0.624E+01 -.154E+04   -.153E+02 -.751E+01 0.154E+04   0.106E+01 0.152E+01 -.294E+01   0.189E-03 0.260E-03 0.180E+00
   -.373E-04 0.348E+01 -.546E+03   0.407E-04 -.426E+01 0.548E+03   -.235E-05 0.106E+01 -.197E+01   -.961E-07 -.213E-03 0.664E-01
   0.108E+02 0.169E-03 -.515E+03   -.115E+02 -.146E-03 0.514E+03   0.996E+00 -.233E-04 0.597E-01   -.277E-03 0.239E-06 0.652E-01
   -.545E-04 -.862E-04 0.506E+03   0.475E-04 0.834E-04 -.505E+03   0.442E-05 0.215E-05 -.237E+00   0.365E-06 0.168E-05 -.683E-01
   0.204E+01 0.404E+00 0.509E+03   -.201E+01 -.387E+00 -.508E+03   -.377E-01 -.180E-01 -.261E+00   -.300E-04 -.103E-04 -.683E-01
   -.190E-04 0.345E+00 0.155E+04   0.116E-04 -.371E+00 -.155E+04   0.103E-04 0.312E-01 0.308E+01   -.526E-06 0.132E-05 -.182E+00
   0.577E+00 -.182E-04 0.155E+04   -.600E+00 0.195E-04 -.155E+04   0.269E-01 -.986E-06 0.308E+01   0.135E-04 0.660E-06 -.182E+00
   -.146E-04 -.120E-02 -.154E+04   0.191E-04 0.125E-02 0.154E+04   -.180E-05 0.350E-06 -.158E+01   0.164E-06 -.176E-05 0.182E+00
   0.142E+02 -.624E+01 -.154E+04   -.153E+02 0.751E+01 0.154E+04   0.106E+01 -.152E+01 -.294E+01   0.190E-03 -.260E-03 0.180E+00
   -.561E-04 -.348E+01 -.546E+03   0.461E-04 0.426E+01 0.548E+03   0.593E-05 -.106E+01 -.197E+01   0.697E-07 0.211E-03 0.664E-01
   0.506E+01 -.159E-03 -.507E+03   -.500E+01 0.160E-03 0.506E+03   -.444E-01 0.426E-05 0.816E+00   0.733E-04 -.178E-05 0.647E-01
 -----------------------------------------------------------------------------------------------
   0.104E-04 -.650E-04 0.823E-02   -.675E-13 0.176E-12 0.188E-11   -.144E-04 0.429E-04 0.303E-01   0.297E-05 -.918E-06 -.810E-01
 
 
 POSITION                                       TOTAL-FORCE (eV/Angst)
 -----------------------------------------------------------------------------------
      0.00000      6.33074      7.50000         0.000000      0.000000      0.491792
      2.11025      0.00000      7.50000         0.003420      0.004720      0.515574
      0.00000      0.00000      9.61025        -0.000002      0.008865      0.024642
      2.11025      6.33074      9.61025        -0.004708     -0.000002      0.051221
      8.44098      6.33074     11.70770        -0.000000      0.000006     -0.110480
      2.12746      0.00639     11.74873         0.144502     -0.178408     -0.057712
      0.00000      0.01951     13.83398        -0.000000     -0.046582     -0.370864
      2.00198      6.33074     13.80873         1.539620      0.000026     -0.084079
      0.00000      2.11025      7.50000         0.000000      0.000001      0.495379
      2.11025      4.22049      7.50000         0.003420     -0.004719      0.515577
      0.00000      4.22049      9.61025        -0.000001     -0.008866      0.024643
      2.11025      2.11025      9.61025         0.050892      0.000002      0.008139
      0.00000      2.11025     11.72390        -0.000001     -0.000001     -0.111115
      2.12746      4.21411     11.74874         0.144506      0.178408     -0.057696
      0.00000      4.20098     13.83399        -0.000000      0.046579     -0.370779
      2.09055      2.11025     13.84219        -0.181103     -0.000015     -0.497118
      4.22049      6.33074      7.50000         0.000000     -0.000001      0.493473
      6.33074      0.00000      7.50000        -0.003420      0.004720      0.515576
      4.22049      0.00000      9.61025         0.000001      0.064525      0.111711
      6.33074      6.33074      9.61025         0.004708     -0.000002      0.051223
      4.22049      6.33074     11.68401        -0.000000      0.000005      1.195393
      6.31352      0.00639     11.74873        -0.144502     -0.178411     -0.057626
      4.22049      0.09461     14.03823        -0.000000     -1.671446     -1.364829
      6.43900      6.33074     13.80874        -1.539620      0.000026     -0.084187
      4.22049      2.11025      7.50000         0.000001     -0.000001      0.519622
      6.33074      4.22049      7.50000        -0.003420     -0.004720      0.515578
      4.22049      4.22049      9.61025         0.000001     -0.064524      0.111712
      6.33074      2.11025      9.61025        -0.050892      0.000003      0.008142
      4.22049      2.11025     11.75624         0.000000      0.000003     -0.257381
      6.31352      4.21411     11.74874        -0.144504      0.178408     -0.057612
      4.22049      4.12589     14.03823         0.000000      1.671390     -1.364828
      6.35044      2.11025     13.84219         0.181103     -0.000014     -0.497207
      0.00000      6.33074      9.61025         0.000001     -0.000001      0.057428
      2.11025      0.00000      9.61025         0.007845      0.002967      0.085214
      0.00000      0.00000      7.50000        -0.000006     -0.004075     -0.419769
      2.11025      6.33074      7.50000        -0.001833      0.000001     -0.411349
      0.00000      6.33074     13.85236        -0.000003     -0.000015      0.121052
      2.09470      8.42835     13.85928        -0.098329      0.532934      0.417487
      0.00000      8.43640     11.71794         0.000001      0.084154      0.165955
      2.12978      6.33074     11.73761        -0.426990     -0.000004     -0.219324
      0.00000      2.11025      9.61025         0.000001     -0.000004      0.107026
      2.11025      4.22049      9.61025         0.007853     -0.002969      0.085215
      0.00000      4.22049      7.50000         0.000003      0.004068     -0.419767
      2.11025      2.11025      7.50000        -0.008589     -0.000002     -0.424279
      0.00000      2.11025     13.86794        -0.000002      0.000018      0.117385
      2.09470      4.23313     13.85927        -0.098303     -0.532911      0.417507
      0.00000      4.22508     11.71794        -0.000001     -0.084153      0.165951
      2.11475      2.11025     11.72990        -0.012847      0.000004      0.193422
      4.22049      6.33074      9.61025        -0.000000      0.000004     -0.079568
      6.33074      0.00000      9.61025        -0.007851      0.002967      0.085218
      4.22049      0.00000      7.50000        -0.000001     -0.010755     -0.421243
      6.33074      6.33074      7.50000         0.001831      0.000000     -0.411347
      4.22049      6.33075     13.97279         0.000005     -0.000077      0.062397
      6.34628      8.42835     13.85928         0.098329      0.532933      0.417491
      4.22049      8.42157     11.75528         0.000001      0.478893     -0.158367
      6.31120      6.33074     11.73761         0.426990     -0.000005     -0.219317
      4.22049      2.11025      9.61025        -0.000001      0.000002      0.128412
      6.33074      4.22049      9.61025        -0.007843     -0.002968      0.085219
      4.22049      4.22049      7.50000         0.000005      0.010767     -0.421241
      6.33074      2.11025      7.50000         0.008586      0.000001     -0.424277
      4.22049      2.11025     13.90047         0.000003      0.000049      0.559027
      6.34628      4.23313     13.85927         0.098303     -0.532923      0.417513
      4.22049      4.23991     11.75528        -0.000003     -0.478881     -0.158374
      6.32623      2.11025     11.72990         0.012845      0.000004      0.193423
 -----------------------------------------------------------------------------------
    total drift:                               -0.000002     -0.000009     -0.110192


--------------------------------------------------------------------------------------------------------



  FREE ENERGIE OF THE ION-ELECTRON SYSTEM (eV)
  ---------------------------------------------------
  free  energy   TOTEN  =      -467.06581413 eV

  energy  without entropy=     -467.06581413  energy(sigma->0) =     -467.06581413
 


--------------------------------------------------------------------------------------------------------


    POTLOK:  cpu time      1.0726: real time      1.0758


--------------------------------------------------------------------------------------------------------


     LOOP+:  cpu time    661.4864: real time    663.1195
    4ORBIT:  cpu time      0.0000: real time      0.0000

 total amount of memory used by VASP MPI-rank0   850179. kBytes
=======================================================================

   base      :      30000. kBytes
   nonlr-proj:      19500. kBytes
   fftplans  :      18492. kBytes
   grid      :      39444. kBytes
   one-center:        519. kBytes
   HF        :         67. kBytes
   wavefun   :     144608. kBytes
   fock_wrk  :     597549. kBytes
 
  
  
 General timing and accounting informations for this job:
 ========================================================
  
                  Total CPU time used (sec):      667.158
                            User time (sec):      656.805
                          System time (sec):       10.353
                         Elapsed time (sec):      669.930
  
                   Maximum memory used (kb):     2306276.
                   Average memory used (kb):          N/A
  
                          Minor page faults:       350312
                          Major page faults:            0
                 Voluntary context switches:        24723
