 vasp.6.4.2 20Jul23 (build Feb 22 2024 13:53:45) complex                         
 executed on              LinuxNV date 2024.08.27  19:22:31
 running    4 mpi-ranks, with    1 threads/rank, on    1 nodes
 distrk:  each k-point on    4 cores,    1 groups
 distr:  one band on NCORE=   1 cores,    4 groups
 OpenACC runtime initialized ...    4 GPUs detected


--------------------------------------------------------------------------------------------------------


 INCAR:
   SYSTEM = Oxide-Surface
   ISMEAR = 0
   SIGMA = 0.05
   EDIFF = 1E-5
   ALGO = Normal
   IBRION = -1
   NSW = 0
   ISYM = 0
   DIPOL = 0.5 0.5 0.5
   IDIPOL = 3
   LDIPOL = .TRUE.
   ISTART = 0
   LHFCALC = .FALSE.
   GGA = PE
   IVDW = 21
   VDW_SR = 0.96
   HFRCUT = -1
   ENCUT = 520
   PREC = Normal
   PRECFOCK = Normal
   LASPH = .TRUE.
   LREAL = Auto
   ISPIN = 1
   NELM = 200
   NELMIN = 8
   NCORE = 1
   KPAR = 1
   LWAVE = .TRUE.
   LCHARG = .FALSE.

 POTCAR:    PAW_PBE H 15Jun2001                   
 POTCAR:    PAW_PBE O 08Apr2002                   
 POTCAR:    PAW_PBE Mg_pv 13Apr2007               
 POTCAR:    PAW_PBE O 08Apr2002                   
 POTCAR:    PAW_PBE H 15Jun2001                   
   SHA256 =  030f79b5d3ab3cf0e668861823c8fb652ff669f3e15e46930bd03bfd63a607b6 H/POTCAR              
   COPYR  = (c) Copyright 15Jun2001 Georg Kresse                                                    
   COPYR  = This file is part of the software VASP. Any use, copying, and all other rights are regul
   COPYR  = If you do not have a valid VASP license, you may not use, copy or distribute this file. 
   VRHFIN =H: ultrasoft test                                                                        
   LEXCH  = PE                                                                                      
   EATOM  =    12.4884 eV,    0.9179 Ry                                                             
                                                                                                    
   TITEL  = PAW_PBE H 15Jun2001                                                                     
   LULTRA =        F    use ultrasoft PP ?                                                          
   IUNSCR =        0    unscreen: 0-lin 1-nonlin 2-no                                               
   RPACOR =    0.000    partial core radius                                                         
   POMASS =    1.000; ZVAL   =    1.000    mass and valenz                                          
   RCORE  =    1.100    outmost cutoff radius                                                       
   RWIGS  =    0.700; RWIGS  =    0.370    wigner-seitz radius (au A)                               
   ENMAX  =  250.000; ENMIN  =  200.000 eV                                                          
   RCLOC  =    0.701    cutoff for local pot                                                        
   LCOR   =        T    correct aug charges                                                         
   LPAW   =        T    paw PP                                                                      
   EAUG   =  400.000                                                                                
   RMAX   =    1.123    core radius for proj-oper                                                   
   RAUG   =    1.200    factor for augmentation sphere                                              
   RDEP   =    1.112    radius for radial grids                                                     
   RDEPT  =    0.926    core radius for aug-charge                                                  
                                                                                                    
   Atomic configuration                                                                             
    2 entries                                                                                       
     n  l   j            E        occ.                                                              
     1  0  0.50        -6.4927   1.0000                                                             
     2  1  0.50        -3.4015   0.0000                                                             
   Description                                                                                      
     l       E           TYP  RCUT    TYP  RCUT                                                     
     0     -6.4927494     23  1.100                                                                 
     0      6.8029130     23  1.100                                                                 
     1     -4.0817478     23  1.100                                                                 
  local pseudopotential read in
  atomic valenz-charges read in
  non local Contribution for L=            0  read in
    real space projection operators read in
  non local Contribution for L=            0  read in
    real space projection operators read in
  non local Contribution for L=            1  read in
    real space projection operators read in
    PAW grid and wavefunctions read in
 
   number of l-projection  operators is LMAX  =            3
   number of lm-projection operators is LMMAX =            5
 
 POTCAR:    PAW_PBE O 08Apr2002                   
   SHA256 =  818f92134a0a090dccd8ba1447fa70422a3b330e708bb4f08108d8ae51209ddf O/POTCAR              
   COPYR  = (c) Copyright 08Apr2002 Georg Kresse                                                    
   COPYR  = This file is part of the software VASP. Any use, copying, and all other rights are regul
   COPYR  = If you do not have a valid VASP license, you may not use, copy or distribute this file. 
   VRHFIN =O: s2p4                                                                                  
   LEXCH  = PE                                                                                      
   EATOM  =   432.3788 eV,   31.7789 Ry                                                             
                                                                                                    
   TITEL  = PAW_PBE O 08Apr2002                                                                     
   LULTRA =        F    use ultrasoft PP ?                                                          
   IUNSCR =        1    unscreen: 0-lin 1-nonlin 2-no                                               
   RPACOR =    1.200    partial core radius                                                         
   POMASS =   16.000; ZVAL   =    6.000    mass and valenz                                          
   RCORE  =    1.520    outmost cutoff radius                                                       
   RWIGS  =    1.550; RWIGS  =    0.820    wigner-seitz radius (au A)                               
   ENMAX  =  400.000; ENMIN  =  300.000 eV                                                          
   ICORE  =        2    local potential                                                             
   LCOR   =        T    correct aug charges                                                         
   LPAW   =        T    paw PP                                                                      
   EAUG   =  605.392                                                                                
   DEXC   =    0.000                                                                                
   RMAX   =    1.553    core radius for proj-oper                                                   
   RAUG   =    1.300    factor for augmentation sphere                                              
   RDEP   =    1.550    radius for radial grids                                                     
   RDEPT  =    1.329    core radius for aug-charge                                                  
                                                                                                    
   Atomic configuration                                                                             
    4 entries                                                                                       
     n  l   j            E        occ.                                                              
     1  0  0.50      -514.6923   2.0000                                                             
     2  0  0.50       -23.9615   2.0000                                                             
     2  1  0.50        -9.0305   4.0000                                                             
     3  2  1.50        -9.5241   0.0000                                                             
   Description                                                                                      
     l       E           TYP  RCUT    TYP  RCUT                                                     
     0    -23.9615318     23  1.200                                                                 
     0     -9.5240782     23  1.200                                                                 
     1     -9.0304911     23  1.520                                                                 
     1      8.1634956     23  1.520                                                                 
     2     -9.5240782      7  1.500                                                                 
  local pseudopotential read in
  partial core-charges read in
  partial kinetic energy density read in
  kinetic energy density of atom read in
  atomic valenz-charges read in
  non local Contribution for L=            0  read in
    real space projection operators read in
  non local Contribution for L=            0  read in
    real space projection operators read in
  non local Contribution for L=            1  read in
    real space projection operators read in
  non local Contribution for L=            1  read in
    real space projection operators read in
    PAW grid and wavefunctions read in
 
   number of l-projection  operators is LMAX  =            4
   number of lm-projection operators is LMMAX =            8
 
 POTCAR:    PAW_PBE Mg_pv 13Apr2007               
   SHA256 =  f474ac0dd33840b9ae76c01d57fea79fdf77cdfbb07d5ade72c65f83c709b62b Mg_pv/POTCAR          
   COPYR  = (c) Copyright 13Apr2007 Georg Kresse                                                    
   COPYR  = This file is part of the software VASP. Any use, copying, and all other rights are regul
   COPYR  = If you do not have a valid VASP license, you may not use, copy or distribute this file. 
   VRHFIN =Mg: p6s2                                                                                 
   LEXCH  = PE                                                                                      
   EATOM  =  1056.7344 eV,   77.6678 Ry                                                             
                                                                                                    
   TITEL  = PAW_PBE Mg_pv 13Apr2007                                                                 
   LULTRA =        F    use ultrasoft PP ?                                                          
   IUNSCR =        1    unscreen: 0-lin 1-nonlin 2-no                                               
   RPACOR =    1.500    partial core radius                                                         
   POMASS =   24.305; ZVAL   =    8.000    mass and valenz                                          
   RCORE  =    2.000    outmost cutoff radius                                                       
   RWIGS  =    2.000; RWIGS  =    1.058    wigner-seitz radius (au A)                               
   ENMAX  =  403.929; ENMIN  =  302.947 eV                                                          
   RCLOC  =    1.506    cutoff for local pot                                                        
   LCOR   =        T    correct aug charges                                                         
   LPAW   =        T    paw PP                                                                      
   EAUG   =  758.780                                                                                
   DEXC   =    0.000                                                                                
   RMAX   =    2.045    core radius for proj-oper                                                   
   RAUG   =    1.300    factor for augmentation sphere                                              
   RDEP   =    2.025    radius for radial grids                                                     
   RDEPT  =    1.557    core radius for aug-charge                                                  
                                                                                                    
   Atomic configuration                                                                             
    5 entries                                                                                       
     n  l   j            E        occ.                                                              
     1  0  0.50     -1259.6230   2.0000                                                             
     2  0  0.50       -79.8442   2.0000                                                             
     2  1  1.50       -46.6121   6.0000                                                             
     3  0  0.50        -4.7055   2.0000                                                             
     3  2  1.50        -1.3606   0.0000                                                             
   Description                                                                                      
     l       E           TYP  RCUT    TYP  RCUT                                                     
     1    -46.6121073     23  1.600                                                                 
     1      2.7211652     23  1.600                                                                 
     0     -4.7054661     23  2.000                                                                 
     0     61.2262170     23  2.000                                                                 
     2     -1.3605826     23  2.000                                                                 
  local pseudopotential read in
  partial core-charges read in
  partial kinetic energy density read in
  atomic valenz-charges read in
  non local Contribution for L=            1  read in
    real space projection operators read in
  non local Contribution for L=            1  read in
    real space projection operators read in
  non local Contribution for L=            0  read in
    real space projection operators read in
  non local Contribution for L=            0  read in
    real space projection operators read in
  non local Contribution for L=            2  read in
    real space projection operators read in
    PAW grid and wavefunctions read in
 
   number of l-projection  operators is LMAX  =            5
   number of lm-projection operators is LMMAX =           13
 
 POTCAR:    PAW_PBE O 08Apr2002                   
   SHA256 =  818f92134a0a090dccd8ba1447fa70422a3b330e708bb4f08108d8ae51209ddf O/POTCAR              
   COPYR  = (c) Copyright 08Apr2002 Georg Kresse                                                    
   COPYR  = This file is part of the software VASP. Any use, copying, and all other rights are regul
   COPYR  = If you do not have a valid VASP license, you may not use, copy or distribute this file. 
   VRHFIN =O: s2p4                                                                                  
   LEXCH  = PE                                                                                      
   EATOM  =   432.3788 eV,   31.7789 Ry                                                             
                                                                                                    
   TITEL  = PAW_PBE O 08Apr2002                                                                     
   LULTRA =        F    use ultrasoft PP ?                                                          
   IUNSCR =        1    unscreen: 0-lin 1-nonlin 2-no                                               
   RPACOR =    1.200    partial core radius                                                         
   POMASS =   16.000; ZVAL   =    6.000    mass and valenz                                          
   RCORE  =    1.520    outmost cutoff radius                                                       
   RWIGS  =    1.550; RWIGS  =    0.820    wigner-seitz radius (au A)                               
   ENMAX  =  400.000; ENMIN  =  300.000 eV                                                          
   ICORE  =        2    local potential                                                             
   LCOR   =        T    correct aug charges                                                         
   LPAW   =        T    paw PP                                                                      
   EAUG   =  605.392                                                                                
   DEXC   =    0.000                                                                                
   RMAX   =    1.553    core radius for proj-oper                                                   
   RAUG   =    1.300    factor for augmentation sphere                                              
   RDEP   =    1.550    radius for radial grids                                                     
   RDEPT  =    1.329    core radius for aug-charge                                                  
                                                                                                    
   Atomic configuration                                                                             
    4 entries                                                                                       
     n  l   j            E        occ.                                                              
     1  0  0.50      -514.6923   2.0000                                                             
     2  0  0.50       -23.9615   2.0000                                                             
     2  1  0.50        -9.0305   4.0000                                                             
     3  2  1.50        -9.5241   0.0000                                                             
   Description                                                                                      
     l       E           TYP  RCUT    TYP  RCUT                                                     
     0    -23.9615318     23  1.200                                                                 
     0     -9.5240782     23  1.200                                                                 
     1     -9.0304911     23  1.520                                                                 
     1      8.1634956     23  1.520                                                                 
     2     -9.5240782      7  1.500                                                                 
  local pseudopotential read in
  partial core-charges read in
  partial kinetic energy density read in
  kinetic energy density of atom read in
  atomic valenz-charges read in
  non local Contribution for L=            0  read in
    real space projection operators read in
  non local Contribution for L=            0  read in
    real space projection operators read in
  non local Contribution for L=            1  read in
    real space projection operators read in
  non local Contribution for L=            1  read in
    real space projection operators read in
    PAW grid and wavefunctions read in
 
   number of l-projection  operators is LMAX  =            4
   number of lm-projection operators is LMMAX =            8
 
 Optimization of the real space projectors (new method)

 maximal supplied QI-value         = 34.20
 optimisation between [QCUT,QGAM] = [ 11.63, 23.26] = [ 37.87,151.49] Ry 
 Optimized for a Real-space Cutoff    1.14 Angstroem

   l    n(q)    QCUT    max X(q) W(low)/X(q) W(high)/X(q)  e(spline) 
   0      8    11.629    19.460    0.27E-03    0.65E-03    0.17E-06
   0      8    11.629    12.209    0.25E-03    0.62E-03    0.16E-06
   1      7    11.629     4.655    0.29E-03    0.85E-04    0.19E-06
 Optimization of the real space projectors (new method)

 maximal supplied QI-value         = 24.76
 optimisation between [QCUT,QGAM] = [ 11.64, 23.27] = [ 37.91,151.63] Ry 
 Optimized for a Real-space Cutoff    1.04 Angstroem

   l    n(q)    QCUT    max X(q) W(low)/X(q) W(high)/X(q)  e(spline) 
   0      7    11.635    20.381    0.14E-03    0.49E-03    0.18E-06
   0      7    11.635    15.268    0.16E-03    0.52E-03    0.19E-06
   1      7    11.635     5.964    0.30E-03    0.44E-03    0.22E-06
   1      7    11.635     5.382    0.27E-03    0.34E-03    0.19E-06
 Optimization of the real space projectors (new method)

 maximal supplied QI-value         = 18.90
 optimisation between [QCUT,QGAM] = [ 11.53, 23.24] = [ 37.21,151.29] Ry 
 Optimized for a Real-space Cutoff    1.21 Angstroem

   l    n(q)    QCUT    max X(q) W(low)/X(q) W(high)/X(q)  e(spline) 
   1      8    11.527     2.974    0.16E-03    0.13E-03    0.98E-07
   1      8    11.527     4.279    0.42E-03    0.30E-03    0.22E-06
   0      8    11.527    16.381    0.13E-03    0.20E-03    0.72E-07
   0      8    11.527     5.611    0.88E-04    0.13E-03    0.50E-07
   2      7    11.527     4.652    0.25E-03    0.73E-04    0.51E-07
 Optimization of the real space projectors (new method)

 maximal supplied QI-value         = 24.76
 optimisation between [QCUT,QGAM] = [ 11.64, 23.27] = [ 37.91,151.63] Ry 
 Optimized for a Real-space Cutoff    1.04 Angstroem

   l    n(q)    QCUT    max X(q) W(low)/X(q) W(high)/X(q)  e(spline) 
   0      7    11.635    20.381    0.14E-03    0.49E-03    0.18E-06
   0      7    11.635    15.268    0.16E-03    0.52E-03    0.19E-06
   1      7    11.635     5.964    0.30E-03    0.44E-03    0.22E-06
   1      7    11.635     5.382    0.27E-03    0.34E-03    0.19E-06
  PAW_PBE H 15Jun2001                   :
 energy of atom  1       EATOM=  -12.4884
 kinetic energy error for atom=    0.0014 (will be added to EATOM!!)
  PAW_PBE O 08Apr2002                   :
 energy of atom  2       EATOM= -432.3788
 kinetic energy error for atom=    0.0208 (will be added to EATOM!!)
  PAW_PBE Mg_pv 13Apr2007               :
 energy of atom  3       EATOM=-1056.7344
 kinetic energy error for atom=    0.0340 (will be added to EATOM!!)
  PAW_PBE O 08Apr2002                   :
 energy of atom  4       EATOM= -432.3788
 kinetic energy error for atom=    0.0208 (will be added to EATOM!!)
 
 
 POSCAR:  H  O Mg  O
  positions in direct lattice
  No initial velocities read in
 exchange correlation table for  LEXCH =        8
   RHO(1)=    0.500       N(1)  =     2000
   RHO(2)=  100.500       N(2)  =     4000
 


--------------------------------------------------------------------------------------------------------


 ion  position               nearest neighbor table
   1  0.617  0.554  0.761-   3 0.97
   2  0.510  0.673  0.712-   3 1.01
   3  0.508  0.572  0.744-   1 0.97   2 1.01  34 2.25
   4  0.000  0.750  0.239-  36 2.11  46 2.11  55 2.11  38 2.11  39 2.11
   5  0.250  0.000  0.239-  37 2.11  47 2.11  54 2.11  38 2.11  39 2.11
   6  0.000  0.000  0.364-  38 2.11  44 2.11  53 2.11  37 2.11  36 2.11  42 2.11
   7  0.250  0.750  0.364-  39 2.11  45 2.11  52 2.11  37 2.11  36 2.11  43 2.12
   8  0.000  0.750  0.488-  50 2.11  42 2.11  43 2.11  36 2.12  59 2.12  40 2.15
   9  0.250  0.000  0.488-  51 2.11  43 2.11  58 2.11  42 2.11  37 2.12  41 2.15
  10  0.000  0.000  0.612-  48 2.10  41 2.10  57 2.11  42 2.11  40 2.11
  11  0.248  0.750  0.612-  40 2.09  43 2.10  49 2.11  41 2.11  56 2.13
  12  0.000  0.250  0.239-  44 2.11  46 2.11  38 2.11  63 2.11  47 2.11
  13  0.250  0.500  0.239-  45 2.11  47 2.11  39 2.11  62 2.11  46 2.11
  14  0.000  0.500  0.364-  46 2.11  44 2.11  36 2.11  61 2.11  45 2.11  50 2.11
  15  0.250  0.250  0.364-  47 2.11  45 2.11  37 2.11  60 2.11  44 2.11  51 2.12
  16  0.000  0.250  0.488-  51 2.11  50 2.11  67 2.11  42 2.11  44 2.12  48 2.15
  17  0.251  0.500  0.489-  66 2.11  51 2.11  43 2.11  49 2.12  50 2.12  45 2.13
  18  0.001  0.500  0.612-  49 2.09  65 2.10  50 2.11  48 2.11  40 2.12
  19  0.249  0.250  0.612-  48 2.10  41 2.11  51 2.11  49 2.11  64 2.12
  20  0.500  0.750  0.239-  52 2.11  55 2.11  39 2.11  62 2.11  54 2.11
  21  0.750  0.000  0.239-  53 2.11  54 2.11  38 2.11  63 2.11  55 2.11
  22  0.500  0.000  0.364-  54 2.11  53 2.11  37 2.11  60 2.11  52 2.11  58 2.12
  23  0.750  0.750  0.364-  55 2.11  52 2.11  36 2.11  61 2.11  53 2.11  59 2.12
  24  0.500  0.749  0.489-  66 2.10  43 2.10  59 2.11  58 2.11  52 2.13  56 2.20
  25  0.750  0.000  0.488-  67 2.11  58 2.11  42 2.11  59 2.11  53 2.12  57 2.15
  26  0.500  0.002  0.612-  64 2.07  56 2.09  58 2.11  41 2.11  57 2.12
  27  0.753  0.751  0.611-  59 2.08  40 2.09  57 2.10  65 2.11  56 2.13
  28  0.500  0.250  0.239-  60 2.11  62 2.11  63 2.11  54 2.11  47 2.11
  29  0.750  0.500  0.239-  61 2.11  62 2.11  63 2.11  55 2.11  46 2.11
  30  0.500  0.500  0.364-  62 2.11  61 2.11  60 2.11  52 2.11  45 2.11  66 2.14
  31  0.750  0.250  0.364-  63 2.11  61 2.11  60 2.11  53 2.11  44 2.11  67 2.12
  32  0.500  0.251  0.489-  51 2.11  66 2.11  67 2.11  58 2.12  60 2.13  64 2.14
  33  0.749  0.500  0.489-  66 2.10  67 2.11  59 2.11  50 2.12  61 2.13  65 2.15
  34  0.498  0.494  0.618-  64 2.08  49 2.11  65 2.14  66 2.19  56 2.20   3 2.25
  35  0.751  0.250  0.612-  48 2.10  67 2.10  57 2.11  64 2.12  65 2.12
  36  0.000  0.750  0.364-   4 2.11  14 2.11  23 2.11   6 2.11   7 2.11   8 2.12
  37  0.250  0.000  0.364-   5 2.11  15 2.11  22 2.11   6 2.11   7 2.11   9 2.12
  38  0.000  0.000  0.239-   6 2.11  12 2.11  21 2.11   5 2.11   4 2.11
  39  0.250  0.750  0.239-   7 2.11  13 2.11  20 2.11   5 2.11   4 2.11
  40  1.000  0.750  0.615-  27 2.09  11 2.09  10 2.11  18 2.12   8 2.15
  41  0.249  1.000  0.615-  10 2.10  19 2.11  11 2.11  26 2.11   9 2.15
  42  1.000  1.000  0.488-  10 2.11   8 2.11  25 2.11   9 2.11  16 2.11   6 2.11
  43  0.251  0.750  0.488-  11 2.10  24 2.10   9 2.11   8 2.11  17 2.11   7 2.12
  44  0.000  0.250  0.364-  12 2.11  14 2.11   6 2.11  31 2.11  15 2.11  16 2.12
  45  0.250  0.500  0.364-  13 2.11  15 2.11   7 2.11  30 2.11  14 2.11  17 2.13
  46  0.000  0.500  0.239-  14 2.11  12 2.11   4 2.11  29 2.11  13 2.11
  47  0.250  0.250  0.239-  15 2.11  13 2.11   5 2.11  28 2.11  12 2.11
  48  1.000  0.250  0.615-  35 2.10  10 2.10  19 2.10  18 2.11  16 2.15
  49  0.248  0.500  0.613-  18 2.09  11 2.11  34 2.11  19 2.11  17 2.12
  50  1.000  0.500  0.488-   8 2.11  18 2.11  16 2.11  14 2.11  33 2.12  17 2.12
  51  0.250  0.250  0.488-   9 2.11  32 2.11  16 2.11  17 2.11  19 2.11  15 2.12
  52  0.500  0.750  0.364-  20 2.11  23 2.11   7 2.11  30 2.11  22 2.11  24 2.13
  53  0.750  0.000  0.364-  21 2.11  22 2.11   6 2.11  31 2.11  23 2.11  25 2.12
  54  0.500  0.000  0.239-  22 2.11  21 2.11   5 2.11  28 2.11  20 2.11
  55  0.750  0.750  0.239-  23 2.11  20 2.11   4 2.11  29 2.11  21 2.11
  56  0.500  0.754  0.618-  26 2.09  11 2.13  27 2.13  24 2.20  34 2.20
  57  0.751  1.000  0.615-  27 2.10  10 2.11  35 2.11  26 2.12  25 2.15
  58  0.500  0.999  0.488-  26 2.11  25 2.11   9 2.11  24 2.11  22 2.12  32 2.12
  59  0.749  0.750  0.488-  27 2.08  24 2.11  25 2.11  33 2.11   8 2.12  23 2.12
  60  0.500  0.250  0.364-  28 2.11  30 2.11  31 2.11  22 2.11  15 2.11  32 2.13
  61  0.750  0.500  0.364-  29 2.11  30 2.11  31 2.11  23 2.11  14 2.11  33 2.13
  62  0.500  0.500  0.239-  30 2.11  29 2.11  28 2.11  20 2.11  13 2.11
  63  0.750  0.250  0.239-  31 2.11  29 2.11  28 2.11  21 2.11  12 2.11
  64  0.500  0.248  0.615-  26 2.07  34 2.08  35 2.12  19 2.12  32 2.14
  65  0.752  0.500  0.615-  18 2.10  27 2.11  35 2.12  34 2.14  33 2.15
  66  0.500  0.501  0.489-  24 2.10  33 2.10  17 2.11  32 2.11  30 2.14  34 2.19
  67  0.750  0.250  0.488-  35 2.10  25 2.11  33 2.11  32 2.11  16 2.11  31 2.12
 

IMPORTANT INFORMATION: All symmetrisations will be switched off!
NOSYMM: (Re-)initialisation of all symmetry stuff for point group C_1.


----------------------------------------------------------------------------------------

                                     Primitive cell                                     

  volume of cell :    1211.2538

  direct lattice vectors                    reciprocal lattice vectors
     8.440984654  0.000000000  0.000000000     0.118469591  0.000000000  0.000000000
     0.000000000  8.440984654  0.000000000     0.000000000  0.118469591  0.000000000
     0.000000000  0.000000000 17.000000000     0.000000000  0.000000000  0.058823529

  length of vectors
     8.440984654  8.440984654 17.000000000     0.118469591  0.118469591  0.058823529

  position of ions in fractional coordinates (direct lattice)
     0.616832100  0.554429713  0.760553841
     0.510014054  0.672845498  0.712302790
     0.507589782  0.572189385  0.744476833
     0.000084749  0.750056171  0.239446159
     0.250084749  0.000056171  0.239446159
     0.000084749  0.000056171  0.363578286
     0.250084749  0.750056171  0.363578286
     0.000292034  0.749824964  0.488119943
     0.250127698  0.000181851  0.488431874
     0.000158555  0.000466213  0.612094268
     0.247767905  0.749974041  0.611893376
     0.000084749  0.250056171  0.239446159
     0.250084749  0.500056171  0.239446159
     0.000084749  0.500056171  0.363578286
     0.250084749  0.250056171  0.363578286
     0.000116012  0.250196651  0.488268359
     0.250770752  0.499798843  0.488884857
     0.000510418  0.499570052  0.611813977
     0.249067721  0.249912005  0.612281031
     0.500084749  0.750056171  0.239446159
     0.750084749  0.000056171  0.239446159
     0.500084749  0.000056171  0.363578286
     0.750084749  0.750056171  0.363578286
     0.499810778  0.749036438  0.488828048
     0.749862546  0.000340508  0.488298782
     0.499761848  0.002048857  0.612169767
     0.752549470  0.750728058  0.610753521
     0.500084749  0.250056171  0.239446159
     0.750084749  0.500056171  0.239446159
     0.500084749  0.500056171  0.363578286
     0.750084749  0.250056171  0.363578286
     0.499866424  0.250603695  0.488721432
     0.749099841  0.499734903  0.488964189
     0.498205335  0.493574688  0.618100110
     0.750753975  0.249613073  0.611923847
     0.000084749  0.750056171  0.363578286
     0.250084749  0.000056171  0.363578286
     0.000084749  0.000056171  0.239446159
     0.250084749  0.750056171  0.239446159
     0.999857188  0.750394105  0.614566772
     0.249346556  0.999943829  0.614781797
     0.999915251  0.999830927  0.487959860
     0.250643896  0.750289407  0.488342652
     0.000084749  0.250056171  0.363578286
     0.250084749  0.500056171  0.363578286
     0.000084749  0.500056171  0.239446159
     0.250084749  0.250056171  0.239446159
     0.999828427  0.249634011  0.614770607
     0.248265660  0.500148340  0.613489608
     0.999666695  0.500164134  0.487824047
     0.249993932  0.249673109  0.488045416
     0.500084749  0.750056171  0.363578286
     0.750084749  0.000056171  0.363578286
     0.500084749  0.000056171  0.239446159
     0.750084749  0.750056171  0.239446159
     0.500208490  0.754444867  0.617976523
     0.750578969  0.999922121  0.614742452
     0.500080035  0.999350643  0.488242651
     0.749413318  0.750087637  0.488265164
     0.500084749  0.250056171  0.363578286
     0.750084749  0.500056171  0.363578286
     0.500084749  0.500056171  0.239446159
     0.750084749  0.250056171  0.239446159
     0.500099799  0.247787997  0.614504174
     0.751766757  0.500350148  0.615182713
     0.500235346  0.500508510  0.489332342
     0.749985949  0.249943297  0.488132887

  ion indices of the primitive-cell ions
   primitive index   ion index
                 1           1
                 2           2
                 3           3
                 4           4
                 5           5
                 6           6
                 7           7
                 8           8
                 9           9
                10          10
                11          11
                12          12
                13          13
                14          14
                15          15
                16          16
                17          17
                18          18
                19          19
                20          20
                21          21
                22          22
                23          23
                24          24
                25          25
                26          26
                27          27
                28          28
                29          29
                30          30
                31          31
                32          32
                33          33
                34          34
                35          35
                36          36
                37          37
                38          38
                39          39
                40          40
                41          41
                42          42
                43          43
                44          44
                45          45
                46          46
                47          47
                48          48
                49          49
                50          50
                51          51
                52          52
                53          53
                54          54
                55          55
                56          56
                57          57
                58          58
                59          59
                60          60
                61          61
                62          62
                63          63
                64          64
                65          65
                66          66
                67          67

----------------------------------------------------------------------------------------

 
 
 KPOINTS: pymatgen v2020.8.13 with grid density = 

Automatic generation of k-mesh.
 Grid dimensions read from file:
 generate k-points for:    2    2    1

 Generating k-lattice:

  Cartesian coordinates                     Fractional coordinates (reciprocal lattice)
     0.059234796  0.000000000  0.000000000     0.500000000  0.000000000  0.000000000
     0.000000000  0.059234796  0.000000000     0.000000000  0.500000000  0.000000000
     0.000000000  0.000000000  0.058823529     0.000000000  0.000000000  1.000000000

  Length of vectors
     0.059234796  0.059234796  0.058823529

  Shift w.r.t. Gamma in fractional coordinates (k-lattice)
     0.000000000  0.000000000  0.000000000

 
 Subroutine IBZKPT returns following result:
 ===========================================
 
 Found      4 irreducible k-points:
 
 Following reciprocal coordinates:
            Coordinates               Weight
  0.000000  0.000000  0.000000      1.000000
  0.500000  0.000000  0.000000      1.000000
  0.000000  0.500000  0.000000      1.000000
  0.500000  0.500000  0.000000      1.000000
 
 Following cartesian coordinates:
            Coordinates               Weight
  0.000000  0.000000  0.000000      1.000000
  0.059235  0.000000  0.000000      1.000000
  0.000000  0.059235  0.000000      1.000000
  0.059235  0.059235  0.000000      1.000000
 


--------------------------------------------------------------------------------------------------------




 Dimension of arrays:
   k-points           NKPTS =      4   k-points in BZ     NKDIM =      4   number of bands    NBANDS=    276
   number of dos      NEDOS =    301   number of ions     NIONS =     67
   non local maximal  LDIM  =      5   non local SUM 2l+1 LMDIM =     13
   total plane-waves  NPLWV = 221184
   max r-space proj   IRMAX =   1407   max aug-charges    IRDMAX=   3798
   dimension x,y,z NGX =    48 NGY =   48 NGZ =   96
   dimension x,y,z NGXF=    96 NGYF=   96 NGZF=  192
   support grid    NGXF=    96 NGYF=   96 NGZF=  192
   ions per type =               2   1  32  32
   NGX,Y,Z   is equivalent  to a cutoff of   9.45,  9.45,  9.39 a.u.
   NGXF,Y,Z  is equivalent  to a cutoff of  18.91, 18.91, 18.78 a.u.

 SYSTEM =  Oxide-Surface                           
 POSCAR =   H  O Mg  O                             

--------------------------------------------------------------------------------------------------------


  energy-cutoff  :      520.00
  volume of cell :     1211.25
      direct lattice vectors                 reciprocal lattice vectors
     8.440984654  0.000000000  0.000000000     0.118469591  0.000000000  0.000000000
     0.000000000  8.440984654  0.000000000     0.000000000  0.118469591  0.000000000
     0.000000000  0.000000000 17.000000000     0.000000000  0.000000000  0.058823529

  length of vectors
     8.440984654  8.440984654 17.000000000     0.118469591  0.118469591  0.058823529


 
 k-points in units of 2pi/SCALE and weight: pymatgen v2020.8.13 with grid density = 
   0.00000000  0.00000000  0.00000000       0.250
   0.05923480  0.00000000  0.00000000       0.250
   0.00000000  0.05923480  0.00000000       0.250
   0.05923480  0.05923480  0.00000000       0.250
 
 k-points in reciprocal lattice and weights: pymatgen v2020.8.13 with grid density = 
   0.00000000  0.00000000  0.00000000       0.250
   0.50000000  0.00000000  0.00000000       0.250
   0.00000000  0.50000000  0.00000000       0.250
   0.50000000  0.50000000  0.00000000       0.250
 
 position of ions in fractional coordinates (direct lattice) 
   0.61683210  0.55442971  0.76055384
   0.51001405  0.67284550  0.71230279
   0.50758978  0.57218939  0.74447683
   0.00008475  0.75005617  0.23944616
   0.25008475  0.00005617  0.23944616
   0.00008475  0.00005617  0.36357829
   0.25008475  0.75005617  0.36357829
   0.00029203  0.74982496  0.48811994
   0.25012770  0.00018185  0.48843187
   0.00015856  0.00046621  0.61209427
   0.24776790  0.74997404  0.61189338
   0.00008475  0.25005617  0.23944616
   0.25008475  0.50005617  0.23944616
   0.00008475  0.50005617  0.36357829
   0.25008475  0.25005617  0.36357829
   0.00011601  0.25019665  0.48826836
   0.25077075  0.49979884  0.48888486
   0.00051042  0.49957005  0.61181398
   0.24906772  0.24991200  0.61228103
   0.50008475  0.75005617  0.23944616
   0.75008475  0.00005617  0.23944616
   0.50008475  0.00005617  0.36357829
   0.75008475  0.75005617  0.36357829
   0.49981078  0.74903644  0.48882805
   0.74986255  0.00034051  0.48829878
   0.49976185  0.00204886  0.61216977
   0.75254947  0.75072806  0.61075352
   0.50008475  0.25005617  0.23944616
   0.75008475  0.50005617  0.23944616
   0.50008475  0.50005617  0.36357829
   0.75008475  0.25005617  0.36357829
   0.49986642  0.25060370  0.48872143
   0.74909984  0.49973490  0.48896419
   0.49820533  0.49357469  0.61810011
   0.75075398  0.24961307  0.61192385
   0.00008475  0.75005617  0.36357829
   0.25008475  0.00005617  0.36357829
   0.00008475  0.00005617  0.23944616
   0.25008475  0.75005617  0.23944616
   0.99985719  0.75039411  0.61456677
   0.24934656  0.99994383  0.61478180
   0.99991525  0.99983093  0.48795986
   0.25064390  0.75028941  0.48834265
   0.00008475  0.25005617  0.36357829
   0.25008475  0.50005617  0.36357829
   0.00008475  0.50005617  0.23944616
   0.25008475  0.25005617  0.23944616
   0.99982843  0.24963401  0.61477061
   0.24826566  0.50014834  0.61348961
   0.99966669  0.50016413  0.48782405
   0.24999393  0.24967311  0.48804542
   0.50008475  0.75005617  0.36357829
   0.75008475  0.00005617  0.36357829
   0.50008475  0.00005617  0.23944616
   0.75008475  0.75005617  0.23944616
   0.50020849  0.75444487  0.61797652
   0.75057897  0.99992212  0.61474245
   0.50008003  0.99935064  0.48824265
   0.74941332  0.75008764  0.48826516
   0.50008475  0.25005617  0.36357829
   0.75008475  0.50005617  0.36357829
   0.50008475  0.50005617  0.23944616
   0.75008475  0.25005617  0.23944616
   0.50009980  0.24778800  0.61450417
   0.75176676  0.50035015  0.61518271
   0.50023535  0.50050851  0.48933234
   0.74998595  0.24994330  0.48813289
 
 position of ions in cartesian coordinates  (Angst):
   5.20667029  4.67993270 12.92941530
   4.30502080  5.67947852 12.10914742
   4.28455756  4.82984182 12.65610616
   0.00071537  6.33121263  4.07058470
   2.11096153  0.00047414  4.07058470
   0.00071537  0.00047414  6.18083086
   2.11096153  6.33121263  6.18083086
   0.00246505  6.32926102  8.29803903
   2.11132406  0.00153500  8.30334185
   0.00133836  0.00393530 10.40560256
   2.09140508  6.33051937 10.40218739
   0.00071537  2.11072030  4.07058470
   2.11096153  4.22096646  4.07058470
   0.00071537  4.22096646  6.18083086
   2.11096153  2.11072030  6.18083086
   0.00097925  2.11190609  8.30056211
   2.11675207  4.21879436  8.31104257
   0.00430843  4.21686314 10.40083762
   2.10237681  2.10950340 10.40877753
   4.22120770  6.33121263  4.07058470
   6.33145386  0.00047414  4.07058470
   4.22120770  0.00047414  6.18083086
   6.33145386  6.33121263  6.18083086
   4.21889511  6.32260507  8.31007682
   6.32957824  0.00287423  8.30107929
   4.21848209  0.01729437 10.40688605
   6.35225853  6.33688402 10.38280986
   4.22120770  2.11072030  4.07058470
   6.33145386  4.22096646  4.07058470
   4.22120770  4.22096646  6.18083086
   6.33145386  2.11072030  6.18083086
   4.21936481  2.11534195  8.30826434
   6.32314026  4.21825465  8.31239121
   4.20534359  4.16625637 10.50770186
   6.33710278  2.10698012 10.40270540
   0.00071537  6.33121263  6.18083086
   2.11096153  0.00047414  6.18083086
   0.00071537  0.00047414  4.07058470
   2.11096153  6.33121263  4.07058470
   8.43977918  6.33406513 10.44763512
   2.10473045  8.44051052 10.45129055
   8.44026928  8.43955751  8.29531762
   2.11568128  6.33318137  8.30182508
   0.00071537  2.11072030  6.18083086
   2.11096153  4.22096646  6.18083086
   0.00071537  4.22096646  4.07058470
   2.11096153  2.11072030  4.07058470
   8.43953641  2.10715686 10.45110031
   2.09560663  4.22174446 10.42932333
   8.43817123  4.22187778  8.29300880
   2.11019494  2.10748688  8.29677207
   4.22120770  6.33121263  6.18083086
   6.33145386  0.00047414  6.18083086
   4.22120770  0.00047414  4.07058470
   6.33145386  6.33121263  4.07058470
   4.22225219  6.36825754 10.50560089
   6.33562556  8.44032728 10.45062168
   4.22116790  8.43550345  8.30012507
   6.32578632  6.33147823  8.30050778
   4.22120770  2.11072030  6.18083086
   6.33145386  4.22096646  6.18083086
   4.22120770  4.22096646  4.07058470
   6.33145386  2.11072030  4.07058470
   4.22133473  2.09157468 10.44657096
   6.34565166  4.22344792 10.45810612
   4.22247888  4.22478466  8.31864981
   6.33061989  2.10976754  8.29825908
 


--------------------------------------------------------------------------------------------------------

--------------------------------------- Iteration      FINAL  ---------------------------------------


--------------------OUTCAR has been truncated-------------------------


--------------------OUTCAR has been truncated-------------------------


--------------------OUTCAR has been truncated-------------------------


--------------------OUTCAR has been truncated-------------------------


--------------------OUTCAR has been truncated-------------------------


--------------------OUTCAR has been truncated-------------------------


--------------------OUTCAR has been truncated-------------------------


--------------------OUTCAR has been truncated-------------------------


--------------------OUTCAR has been truncated-------------------------


--------------------OUTCAR has been truncated-------------------------


    MIXING:  cpu time      0.0126: real time      0.0127
    OFIELD:  cpu time      0.0000: real time      0.0000

  Hirshfeld charges:
            ion         q(e)     
   ------------------------------
      1     H           0.155
      2     H           0.103
      3     O          -0.235
      4     Mg          0.409
      5     Mg          0.409
      6     Mg          0.328
      7     Mg          0.328
      8     Mg          0.332
      9     Mg          0.330
     10     Mg          0.407
     11     Mg          0.410
     12     Mg          0.409
     13     Mg          0.409
     14     Mg          0.328
     15     Mg          0.328
     16     Mg          0.332
     17     Mg          0.329
     18     Mg          0.405
     19     Mg          0.416
     20     Mg          0.409
     21     Mg          0.409
     22     Mg          0.328
     23     Mg          0.329
     24     Mg          0.337
     25     Mg          0.331
     26     Mg          0.403
     27     Mg          0.396
     28     Mg          0.409
     29     Mg          0.409
     30     Mg          0.328
     31     Mg          0.328
     32     Mg          0.332
     33     Mg          0.330
     34     Mg          0.353
     35     Mg          0.408
     36     O          -0.338
     37     O          -0.338
     38     O          -0.400
     39     O          -0.400
     40     O          -0.401
     41     O          -0.402
     42     O          -0.337
     43     O          -0.337
     44     O          -0.338
     45     O          -0.338
     46     O          -0.400
     47     O          -0.400
     48     O          -0.401
     49     O          -0.398
     50     O          -0.337
     51     O          -0.337
     52     O          -0.339
     53     O          -0.338
     54     O          -0.400
     55     O          -0.400
     56     O          -0.366
     57     O          -0.402
     58     O          -0.338
     59     O          -0.337
     60     O          -0.338
     61     O          -0.338
     62     O          -0.400
     63     O          -0.400
     64     O          -0.398
     65     O          -0.399
     66     O          -0.338
     67     O          -0.337

  Hirshfeld-I charges:
            ion         q(e)        dq(e)    
   ------------------------------------------
      1     H           0.468      0.178E-04
      2     H           0.436      0.330E-04
      3     O          -0.988     -0.464E-04
      4     Mg          2.057      0.101E-08
      5     Mg          2.057      0.858E-09
      6     Mg          2.099      0.498E-08
      7     Mg          2.099     -0.795E-08
      8     Mg          2.098     -0.157E-07
      9     Mg          2.097     -0.329E-07
     10     Mg          2.066     -0.215E-07
     11     Mg          2.066      0.222E-06
     12     Mg          2.057     -0.152E-08
     13     Mg          2.057      0.555E-09
     14     Mg          2.100      0.695E-08
     15     Mg          2.099      0.850E-08
     16     Mg          2.098      0.241E-07
     17     Mg          2.096     -0.648E-07
     18     Mg          2.066     -0.617E-07
     19     Mg          2.065     -0.860E-07
     20     Mg          2.057      0.247E-08
     21     Mg          2.057      0.118E-08
     22     Mg          2.099     -0.936E-08
     23     Mg          2.099     -0.996E-08
     24     Mg          2.094      0.206E-06
     25     Mg          2.098     -0.359E-07
     26     Mg          2.068      0.262E-06
     27     Mg          2.065      0.242E-06
     28     Mg          2.057      0.673E-09
     29     Mg          2.057      0.779E-09
     30     Mg          2.097     -0.620E-08
     31     Mg          2.099      0.635E-08
     32     Mg          2.096     -0.367E-07
     33     Mg          2.095     -0.318E-07
     34     Mg          2.069      0.639E-06
     35     Mg          2.066     -0.462E-07
     36     O          -2.107     -0.477E-07
     37     O          -2.105     -0.416E-07
     38     O          -2.053      0.290E-08
     39     O          -2.053      0.119E-07
     40     O          -2.042     -0.289E-06
     41     O          -2.029      0.704E-06
     42     O          -2.126     -0.986E-07
     43     O          -2.133      0.524E-06
     44     O          -2.106      0.624E-07
     45     O          -2.106     -0.293E-07
     46     O          -2.053      0.180E-08
     47     O          -2.053      0.177E-08
     48     O          -2.041     -0.261E-06
     49     O          -2.024      0.199E-05
     50     O          -2.125     -0.197E-06
     51     O          -2.130     -0.266E-06
     52     O          -2.105     -0.119E-06
     53     O          -2.106     -0.544E-07
     54     O          -2.053      0.120E-07
     55     O          -2.053      0.125E-07
     56     O          -1.949     -0.109E-04
     57     O          -2.030      0.630E-06
     58     O          -2.124      0.586E-06
     59     O          -2.137      0.619E-06
     60     O          -2.107     -0.342E-07
     61     O          -2.104     -0.387E-07
     62     O          -2.053      0.116E-07
     63     O          -2.053      0.245E-08
     64     O          -2.046      0.720E-06
     65     O          -2.017      0.660E-06
     66     O          -2.113      0.456E-06
     67     O          -2.132     -0.166E-06

   Hirshfeld-I converged in  30 cycles. Convergence criterion |dq|< 0.500E-04 e

  Atomic reference data used in the T-S method for vdW correction:
            C6at              R0at           ALPHAat      REFSTATE
            (au)              (au)            (au)                
   ---------------------------------------------------------------
   H           6.500          3.099          4.500         0
   O          15.600          3.194          5.400         0
   Mg        627.000          4.271         71.000         0
   O          15.600          3.194          5.400         0

  Tkatchenko/Scheffler method for vdW energy calculation
  ---------------------------------------------------------------------------------------------

  Parameters of vdW forcefield:
            C6ts              R0ts           ALPHAts        RELVOL
            (au)              (au)            (au)                
   ---------------------------------------------------------------
   H           0.789          2.181          1.568          0.34837831
   H           1.248          2.354          1.972          0.43811726
   O          35.217          3.658          8.113          1.50249237
   Mg          1.344          1.533          3.287          0.04629444
   Mg          1.344          1.534          3.287          0.04629623
   Mg          1.273          1.520          3.199          0.04505984
   Mg          1.273          1.520          3.200          0.04506354
   Mg          1.278          1.521          3.205          0.04514332
   Mg          1.278          1.521          3.205          0.04514578
   Mg          1.341          1.533          3.283          0.04624008
   Mg          1.342          1.533          3.285          0.04626344
   Mg          1.344          1.534          3.287          0.04629582
   Mg          1.344          1.534          3.287          0.04629578
   Mg          1.272          1.520          3.198          0.04504886
   Mg          1.273          1.520          3.199          0.04505762
   Mg          1.278          1.521          3.205          0.04514703
   Mg          1.278          1.521          3.206          0.04515267
   Mg          1.341          1.533          3.284          0.04625196
   Mg          1.343          1.533          3.285          0.04627458
   Mg          1.344          1.534          3.287          0.04629560
   Mg          1.344          1.534          3.287          0.04629651
   Mg          1.273          1.520          3.199          0.04506301
   Mg          1.273          1.520          3.199          0.04505238
   Mg          1.281          1.521          3.209          0.04519978
   Mg          1.278          1.521          3.205          0.04514105
   Mg          1.339          1.533          3.281          0.04621133
   Mg          1.343          1.533          3.286          0.04627513
   Mg          1.344          1.533          3.287          0.04629444
   Mg          1.344          1.534          3.287          0.04629850
   Mg          1.277          1.521          3.204          0.04513152
   Mg          1.273          1.520          3.199          0.04505806
   Mg          1.279          1.521          3.207          0.04516232
   Mg          1.279          1.521          3.207          0.04516961
   Mg          1.332          1.531          3.272          0.04608640
   Mg          1.343          1.533          3.286          0.04627722
   O         182.076          4.810         18.448          3.41635068
   O         181.878          4.809         18.438          3.41449604
   O         166.165          4.737         17.624          3.26367303
   O         166.204          4.737         17.626          3.26405539
   O         161.143          4.713         17.355          3.21397104
   O         159.124          4.703         17.246          3.19377006
   O         185.892          4.827         18.641          3.45196778
   O         186.972          4.831         18.695          3.46198291
   O         181.968          4.809         18.443          3.41533827
   O         182.052          4.810         18.447          3.41613095
   O         166.179          4.737         17.625          3.26380240
   O         166.205          4.737         17.626          3.26406477
   O         161.107          4.713         17.353          3.21360861
   O         158.210          4.699         17.197          3.18458552
   O         185.841          4.826         18.638          3.45149239
   O         186.516          4.829         18.672          3.45775598
   O         181.906          4.809         18.440          3.41475714
   O         181.885          4.809         18.439          3.41455775
   O         166.214          4.737         17.626          3.26414742
   O         166.226          4.737         17.627          3.26426811
   O         150.342          4.659         16.764          3.10438663
   O         159.612          4.706         17.273          3.19867014
   O         185.579          4.825         18.625          3.44905761
   O         187.667          4.834         18.729          3.46840817
   O         182.297          4.811         18.459          3.41842387
   O         181.746          4.808         18.432          3.41325823
   O         166.338          4.738         17.633          3.26536887
   O         166.245          4.738         17.628          3.26445344
   O         161.174          4.713         17.357          3.21428134
   O         159.584          4.705         17.271          3.19838249
   O         183.886          4.818         18.540          3.43328933
   O         186.874          4.831         18.690          3.46107080

  vdW correction parametrized for the method `J!    

  IVDW =  21
  VDW_RADIUS =    50.000 A
  VDW_IDAMPF =  0
  VDW_S6 =     1.000
  VDW_SR =     0.960
  VDW_D =    20.000
  LVDW_ONECELL = F F F
  LVDW_SAMETYPE T T T T
  LVDW_EWALD = F

  Number of pair interactions contributing to vdW energy:  978030
  Edisp (eV):   -3.65784
    FORVDW:  cpu time    163.1238: real time    163.4584

  FORCE on cell =-STRESS in cart. coord.  units (eV):
  Direction    XX          YY          ZZ          XY          YZ          ZX
  --------------------------------------------------------------------------------------
  Alpha Z  1128.39523  1128.39523  1128.39523
  Ewald   83949.79579 83962.40352************   -13.83406   -25.87274    31.07587
  Hartree 94789.44925 94805.63887-88098.11659    -2.98266    -0.56805     6.78156
  E(xc)   -2493.14860 -2493.15855 -2498.11917    -0.05998    -0.26272     0.09541
  Local  ************************188379.74365    13.10210    16.10583   -29.85577
  n-local -2840.50453 -2840.25209 -2860.51986    -0.22939     0.25922     0.36421
  augment  1053.91702  1054.30394  1045.64612     0.23777     0.65928    -0.54827
  Kinetic  7447.48898  7452.82298  7499.75019     3.78991     9.72033    -7.87106
  Fock        0.00000     0.00000     0.00000     0.00000     0.00000     0.00000
  vdW        -5.20436    -5.19565    -3.64588    -0.00205     0.01613     0.00255
  -------------------------------------------------------------------------------------
  Total     -19.92615   -19.77638     3.83565     0.02164     0.05728     0.04450
  in kB     -26.35717   -26.15906     5.07358     0.02863     0.07576     0.05886
  external pressure =      -15.81 kB  Pullay stress =        0.00 kB


 VOLUME and BASIS-vectors are now :
 -----------------------------------------------------------------------------
  energy-cutoff  :      520.00
  volume of cell :     1211.25
      direct lattice vectors                 reciprocal lattice vectors
     8.440984654  0.000000000  0.000000000     0.118469591  0.000000000  0.000000000
     0.000000000  8.440984654  0.000000000     0.000000000  0.118469591  0.000000000
     0.000000000  0.000000000 17.000000000     0.000000000  0.000000000  0.058823529

  length of vectors
     8.440984654  8.440984654 17.000000000     0.118469591  0.118469591  0.058823529


 FORCES acting on ions
    electron-ion (+dipol)            ewald-force                    non-local-force                 convergence-correction
 -----------------------------------------------------------------------------------------------
   -.819E+02 0.154E+02 -.215E+03   0.897E+02 -.169E+02 0.218E+03   -.778E+01 0.146E+01 -.243E+01   0.197E-05 -.126E-04 -.119E-03
   0.678E+00 -.672E+02 -.198E+03   -.800E+00 0.731E+02 0.195E+03   0.103E+00 -.597E+01 0.377E+01   -.882E-05 -.644E-04 -.429E-04
   0.486E+02 0.272E+02 -.126E+04   -.858E+02 -.473E+02 0.127E+04   0.372E+02 0.201E+02 -.111E+02   -.125E-03 -.123E-03 -.105E-02
   -.552E-01 -.251E+00 0.172E+04   0.616E-01 0.247E+00 -.171E+04   -.485E-02 0.281E-02 -.702E+01   -.242E-04 -.110E-03 -.972E-03
   0.228E+00 -.161E+00 0.172E+04   -.224E+00 0.162E+00 -.171E+04   -.291E-02 -.102E-02 -.705E+01   -.292E-04 0.139E-03 -.103E-02
   -.156E+00 -.285E+00 0.587E+03   0.172E+00 0.320E+00 -.587E+03   -.120E-01 -.258E-01 0.449E+00   0.226E-04 0.389E-04 0.133E-02
   0.263E-01 -.538E-01 0.587E+03   0.537E-01 0.430E-01 -.587E+03   -.591E-01 0.606E-02 0.599E+00   -.631E-05 0.171E-04 0.143E-02
   -.400E+00 -.285E+01 -.534E+03   0.480E+00 0.279E+01 0.534E+03   -.776E-01 0.513E-01 -.132E+00   -.304E-04 0.362E-04 0.705E-03
   0.257E+01 -.108E+01 -.539E+03   -.253E+01 0.115E+01 0.539E+03   -.392E-01 -.708E-01 -.243E+00   -.866E-06 0.182E-04 0.595E-03
   -.927E+00 -.433E+01 -.168E+04   0.994E+00 0.448E+01 0.167E+04   -.668E-01 -.152E+00 0.598E+01   0.704E-04 0.715E-05 -.413E-03
   0.250E+02 -.211E+02 -.164E+04   -.260E+02 0.212E+02 0.164E+04   0.942E+00 -.286E-01 0.614E+01   -.551E-04 -.403E-04 -.142E-03
   -.449E-01 0.250E+00 0.172E+04   0.499E-01 -.246E+00 -.171E+04   -.385E-02 -.289E-02 -.705E+01   0.659E-05 0.104E-03 -.105E-02
   0.251E+00 0.162E+00 0.172E+04   -.242E+00 -.164E+00 -.171E+04   -.759E-02 0.948E-03 -.705E+01   -.307E-04 -.135E-03 -.103E-02
   -.999E-01 0.275E+00 0.588E+03   0.702E-01 -.315E+00 -.588E+03   0.218E-01 0.284E-01 0.356E+00   -.169E-04 -.241E-04 0.117E-02
   -.957E-01 0.212E-01 0.587E+03   0.912E-01 -.149E-01 -.587E+03   0.413E-02 -.286E-02 0.459E+00   0.159E-06 -.258E-04 0.142E-02
   -.670E-01 0.286E+01 -.539E+03   0.110E+00 -.280E+01 0.540E+03   -.415E-01 -.574E-01 -.131E+00   0.244E-04 -.316E-04 0.627E-03
   0.356E+01 0.111E+01 -.529E+03   -.335E+01 -.117E+01 0.530E+03   -.212E+00 0.600E-01 -.966E+00   -.398E-04 -.174E-04 0.599E-03
   -.120E+01 0.513E+01 -.166E+04   0.138E+01 -.527E+01 0.166E+04   -.174E+00 0.142E+00 0.601E+01   0.454E-04 -.340E-05 -.188E-03
   0.165E+02 0.180E+02 -.167E+04   -.168E+02 -.181E+02 0.166E+04   0.300E+00 0.515E-01 0.608E+01   0.112E-03 0.618E-04 -.201E-03
   0.562E-01 -.277E+00 0.172E+04   -.628E-01 0.266E+00 -.171E+04   0.454E-02 0.786E-02 -.705E+01   0.158E-04 -.102E-03 -.962E-03
   -.229E+00 -.172E+00 0.172E+04   0.225E+00 0.174E+00 -.171E+04   0.283E-02 -.201E-02 -.703E+01   0.264E-04 0.114E-03 -.996E-03
   0.148E+00 -.335E+00 0.586E+03   -.172E+00 0.290E+00 -.587E+03   0.166E-01 0.329E-01 0.503E+00   -.349E-04 0.504E-04 0.131E-02
   -.583E-01 -.528E-02 0.587E+03   -.232E-01 -.481E-01 -.587E+03   0.601E-01 0.379E-01 0.611E+00   0.211E-04 0.156E-05 0.144E-02
   0.413E+00 -.296E+01 -.538E+03   -.485E+00 0.274E+01 0.537E+03   0.713E-01 0.223E+00 0.906E+00   0.380E-04 0.658E-04 0.632E-03
   -.258E+01 -.143E+01 -.537E+03   0.254E+01 0.153E+01 0.537E+03   0.371E-01 -.105E+00 -.188E+00   -.104E-04 -.391E-04 0.635E-03
   0.117E+01 -.112E+02 -.166E+04   -.124E+01 0.116E+02 0.165E+04   0.631E-01 -.448E+00 0.589E+01   -.683E-04 0.147E-03 -.238E-03
   -.259E+02 -.221E+02 -.163E+04   0.270E+02 0.223E+02 0.162E+04   -.103E+01 -.249E+00 0.619E+01   0.837E-04 -.310E-04 -.277E-03
   0.447E-01 0.272E+00 0.172E+04   -.503E-01 -.262E+00 -.171E+04   0.376E-02 -.734E-02 -.704E+01   -.589E-05 0.972E-04 -.101E-02
   -.253E+00 0.174E+00 0.172E+04   0.243E+00 -.176E+00 -.171E+04   0.777E-02 0.173E-02 -.707E+01   0.335E-04 -.109E-03 -.100E-02
   0.839E-01 0.365E+00 0.585E+03   -.669E-01 -.337E+00 -.585E+03   -.136E-01 -.227E-01 0.712E+00   -.954E-05 -.372E-04 0.105E-02
   0.742E-01 -.318E-01 0.587E+03   -.765E-01 0.851E-01 -.587E+03   0.384E-03 -.375E-01 0.510E+00   0.197E-04 -.286E-05 0.135E-02
   0.700E-01 0.365E+01 -.531E+03   -.108E+00 -.347E+01 0.532E+03   0.380E-01 -.177E+00 -.490E+00   -.346E-04 -.546E-04 0.658E-03
   -.340E+01 0.149E+01 -.533E+03   0.318E+01 -.158E+01 0.534E+03   0.220E+00 0.908E-01 -.358E+00   0.445E-04 0.493E-04 0.571E-03
   0.479E+01 0.302E+02 -.156E+04   -.518E+01 -.320E+02 0.155E+04   0.381E+00 0.180E+01 0.259E+01   -.669E-04 -.169E-03 0.292E-04
   -.168E+02 0.182E+02 -.166E+04   0.171E+02 -.184E+02 0.165E+04   -.278E+00 0.198E+00 0.607E+01   -.957E-04 0.688E-04 -.303E-03
   -.280E-01 -.258E+00 0.440E+03   0.266E-01 0.244E+00 -.440E+03   -.246E-02 0.200E-01 0.347E-01   0.456E-05 0.170E-04 0.161E-02
   0.211E-01 -.393E-01 0.440E+03   -.170E-01 0.582E-01 -.439E+03   -.772E-02 -.292E-01 -.913E-01   -.998E-05 -.740E-05 0.160E-02
   -.402E-01 -.116E+00 0.129E+04   0.459E-01 0.122E+00 -.130E+04   -.685E-02 -.810E-02 0.348E+01   0.401E-04 -.612E-05 -.116E-02
   0.193E+00 -.195E+00 0.129E+04   -.183E+00 0.190E+00 -.130E+04   -.129E-01 0.667E-02 0.349E+01   -.292E-04 0.374E-04 -.984E-03
   -.224E+01 -.717E+01 -.127E+04   0.230E+01 0.706E+01 0.127E+04   -.557E-01 0.110E+00 -.509E+01   0.207E-04 -.880E-04 -.813E-03
   0.841E+01 -.583E+01 -.127E+04   -.821E+01 0.578E+01 0.128E+04   -.212E+00 0.535E-01 -.506E+01   0.920E-04 -.410E-04 -.779E-03
   -.375E+00 -.124E+01 -.401E+03   0.385E+00 0.127E+01 0.401E+03   -.113E-01 -.280E-01 0.189E+00   -.178E-04 -.218E-06 0.721E-03
   0.201E+01 -.246E+01 -.395E+03   -.210E+01 0.240E+01 0.395E+03   0.838E-01 0.538E-01 0.444E+00   -.380E-04 -.164E-04 0.733E-03
   0.546E-02 0.249E+00 0.440E+03   0.448E-02 -.230E+00 -.440E+03   -.174E-01 -.287E-01 -.702E-01   -.153E-05 -.303E-04 0.166E-02
   -.134E+00 0.404E-01 0.439E+03   0.847E-01 -.534E-01 -.439E+03   0.644E-01 0.191E-01 -.144E+00   0.741E-05 0.183E-04 0.165E-02
   -.388E-01 0.117E+00 0.129E+04   0.405E-01 -.123E+00 -.130E+04   -.136E-02 0.930E-02 0.348E+01   0.485E-04 0.961E-05 -.117E-02
   0.169E+00 0.193E+00 0.129E+04   -.167E+00 -.189E+00 -.130E+04   -.148E-02 -.542E-02 0.348E+01   -.173E-04 -.434E-04 -.117E-02
   -.935E+00 0.659E+01 -.127E+04   0.934E+00 -.650E+01 0.128E+04   0.972E-03 -.977E-01 -.505E+01   0.106E-04 0.786E-04 -.872E-03
   0.294E+02 0.816E+01 -.124E+04   -.291E+02 -.810E+01 0.124E+04   -.374E+00 -.694E-01 -.517E+01   0.507E-04 0.305E-04 -.566E-03
   0.269E-01 0.126E+01 -.395E+03   0.870E-02 -.129E+01 0.394E+03   -.344E-01 0.289E-01 0.256E+00   0.174E-04 0.583E-06 0.781E-03
   0.235E+01 0.241E+01 -.397E+03   -.235E+01 -.235E+01 0.397E+03   -.510E-02 -.633E-01 0.205E+00   -.896E-05 0.183E-04 0.722E-03
   0.359E-01 -.117E+00 0.439E+03   -.326E-01 0.166E+00 -.439E+03   -.594E-02 -.651E-01 -.127E+00   -.159E-04 0.746E-05 0.163E-02
   -.418E-01 -.771E-01 0.440E+03   0.469E-01 0.854E-01 -.440E+03   -.103E-01 -.152E-01 -.374E-01   0.183E-04 0.985E-06 0.164E-02
   0.410E-01 -.139E+00 0.129E+04   -.464E-01 0.137E+00 -.130E+04   0.862E-02 0.293E-02 0.349E+01   -.338E-04 0.112E-04 -.111E-02
   -.194E+00 -.194E+00 0.129E+04   0.184E+00 0.185E+00 -.130E+04   0.151E-01 0.125E-01 0.349E+01   0.259E-04 0.494E-04 -.991E-03
   0.381E+01 -.371E+02 -.121E+04   -.391E+01 0.369E+02 0.121E+04   0.994E-01 0.238E+00 -.206E+01   -.361E-04 0.730E-04 -.740E-03
   -.853E+01 -.718E+01 -.127E+04   0.832E+01 0.719E+01 0.127E+04   0.225E+00 -.577E-02 -.508E+01   -.971E-04 -.352E-04 -.878E-03
   0.412E+00 -.622E+00 -.397E+03   -.431E+00 0.669E+00 0.396E+03   0.200E-01 -.474E-01 0.326E+00   0.161E-04 0.231E-04 0.784E-03
   -.201E+01 -.207E+01 -.392E+03   0.210E+01 0.205E+01 0.391E+03   -.849E-01 0.181E-01 0.760E+00   0.245E-04 0.212E-04 0.728E-03
   -.188E-01 0.442E-01 0.439E+03   0.176E-01 -.708E-01 -.439E+03   0.410E-04 0.348E-01 -.802E-01   -.103E-04 -.144E-04 0.163E-02
   0.106E+00 0.929E-01 0.439E+03   -.406E-01 -.101E+00 -.439E+03   -.916E-01 0.125E-01 -.180E+00   0.272E-04 0.672E-05 0.166E-02
   0.402E-01 0.142E+00 0.129E+04   -.414E-01 -.140E+00 -.130E+04   0.278E-02 -.253E-02 0.348E+01   -.421E-04 -.134E-05 -.113E-02
   -.169E+00 0.192E+00 0.129E+04   0.167E+00 -.184E+00 -.130E+04   0.330E-02 -.110E-01 0.348E+01   0.758E-05 -.589E-04 -.112E-02
   0.113E+01 0.263E+02 -.125E+04   -.114E+01 -.263E+02 0.125E+04   0.120E-01 0.448E-01 -.496E+01   -.134E-04 0.630E-04 -.614E-03
   -.310E+02 0.106E+02 -.123E+04   0.304E+02 -.106E+02 0.124E+04   0.622E+00 -.569E-01 -.483E+01   -.235E-04 0.822E-05 -.642E-03
   -.133E+00 0.152E+00 -.403E+03   0.856E-01 -.223E+00 0.403E+03   0.501E-01 0.762E-01 -.764E+00   -.790E-05 -.164E-04 0.775E-03
   -.236E+01 0.202E+01 -.397E+03   0.235E+01 -.200E+01 0.396E+03   0.779E-02 -.224E-01 0.345E+00   0.164E-04 -.254E-04 0.737E-03
 -----------------------------------------------------------------------------------------------
   -.300E+02 -.171E+02 0.272E+02   -.426E-12 0.174E-12 0.909E-12   0.299E+02 0.171E+02 -.269E+02   -.103E-03 -.252E-04 0.885E-02
 
 
 POSITION                                       TOTAL-FORCE (eV/Angst)
 -----------------------------------------------------------------------------------
      5.20667      4.67993     12.92942         0.009736     -0.024347      0.023677
      4.30502      5.67948     12.10915        -0.017670      0.000364     -0.028872
      4.28456      4.82984     12.65611        -0.016210      0.023335     -0.039653
      0.00072      6.33121      4.07058         0.002181     -0.001465      0.313053
      2.11096      0.00047      4.07058         0.001524      0.000185      0.318478
      0.00072      0.00047      6.18083         0.005057      0.009694      0.027497
      2.11096      6.33121      6.18083         0.021588     -0.004811      0.033550
      0.00247      6.32926      8.29804         0.003529     -0.001185      0.043611
      2.11132      0.00153      8.30334         0.003114      0.001182      0.048131
      0.00134      0.00394     10.40560         0.001343     -0.000959      0.009979
      2.09141      6.33052     10.40219        -0.017550      0.007532      0.006158
      0.00072      2.11072      4.07058         0.001865      0.000936      0.321145
      2.11096      4.22097      4.07058         0.002786     -0.000744      0.317557
      0.00072      4.22097      6.18083        -0.007177     -0.011257      0.050977
      2.11096      2.11072      6.18083         0.000301      0.003362      0.039063
      0.00098      2.11191      8.30056         0.002283      0.000484      0.045199
      2.11675      4.21879      8.31104         0.000236     -0.000321      0.041566
      0.00431      4.21686     10.40084         0.005335      0.000707      0.005744
      2.10238      2.10950     10.40878         0.000614     -0.005356      0.015926
      4.22121      6.33121      4.07058        -0.001323     -0.002824      0.319130
      6.33145      0.00047      4.07058        -0.000728      0.000494      0.317028
      4.22121      0.00047      6.18083        -0.006318     -0.011701      0.053205
      6.33145      6.33121      6.18083        -0.020571     -0.015533      0.029722
      4.21890      6.32261      8.31008         0.000132      0.005570      0.033708
      6.32958      0.00287      8.30108         0.000048      0.002159      0.047693
      4.21848      0.01729     10.40689         0.001678      0.016445      0.009903
      6.35226      6.33688     10.38281         0.016843      0.011923     -0.000405
      4.22121      2.11072      4.07058        -0.001075      0.002135      0.316216
      6.33145      4.22097      4.07058        -0.002044     -0.001014      0.323781
      4.22121      4.22097      6.18083         0.004012      0.005246      0.069716
      6.33145      2.11072      6.18083        -0.001224      0.015726      0.035230
      4.21936      2.11534      8.30826         0.000512     -0.000577      0.045548
      6.32314      4.21825      8.31239         0.003685     -0.000832      0.037331
      4.20534      4.16626     10.50770        -0.003529     -0.001457      0.068717
      6.33710      2.10698     10.40271         0.002540     -0.009963      0.007263
      0.00072      6.33121      6.18083        -0.003156      0.005422      0.087497
      2.11096      0.00047      6.18083        -0.002661     -0.010573      0.075389
      0.00072      0.00047      4.07058        -0.000449     -0.001895     -0.527224
      2.11096      6.33121      4.07058        -0.002083      0.002188     -0.524985
      8.43978      6.33407     10.44764         0.000602      0.002800      0.018619
      2.10473      8.44051     10.45129        -0.005185      0.000366      0.017589
      8.44027      8.43956      8.29532        -0.000256     -0.001149      0.011158
      2.11568      6.33318      8.30183        -0.002360     -0.003535      0.015226
      0.00072      2.11072      6.18083        -0.006772     -0.009363      0.067728
      2.11096      4.22097      6.18083         0.016341      0.006242      0.099742
      0.00072      4.22097      4.07058         0.001160      0.003103     -0.528969
      2.11096      2.11072      4.07058         0.001223     -0.000981     -0.527250
      8.43954      2.10716     10.45110         0.000945      0.002900      0.014077
      2.09561      4.22174     10.42932        -0.013306     -0.007790      0.015982
      8.43817      4.22188      8.29301         0.001954      0.000749      0.016887
      2.11019      2.10749      8.29677         0.002166     -0.001026      0.011520
      4.22121      6.33121      6.18083        -0.001992     -0.016777      0.096758
      6.33145      0.00047      6.18083        -0.004652     -0.007129      0.080568
      4.22121      0.00047      4.07058         0.003888      0.001296     -0.526646
      6.33145      6.33121      4.07058         0.005652      0.003913     -0.527006
      4.22225      6.36826     10.50560        -0.002636      0.013127      0.023987
      6.33563      8.44033     10.45062         0.009846      0.000076      0.019799
      4.22117      8.43550      8.30013         0.002061     -0.001858      0.013267
      6.32579      6.33148      8.30051         0.001457     -0.001962      0.017489
      4.22121      2.11072      6.18083        -0.000432      0.008142      0.105052
      6.33145      4.22097      6.18083        -0.025912      0.004535      0.094103
      4.22121      4.22097      4.07058         0.002171     -0.000356     -0.529130
      6.33145      2.11072      4.07058         0.002227     -0.002606     -0.529196
      4.22133      2.09157     10.44657         0.002090      0.002352      0.008466
      6.34565      4.22345     10.45811         0.019168     -0.011221     -0.002574
      4.22248      4.22478      8.31865         0.002960      0.005131     -0.008559
      6.33062      2.10977      8.29826         0.000413      0.002748      0.014064
 -----------------------------------------------------------------------------------
    total drift:                               -0.046696      0.005303      0.296186


--------------------------------------------------------------------------------------------------------



  FREE ENERGIE OF THE ION-ELECTRON SYSTEM (eV)
  ---------------------------------------------------
  free  energy   TOTEN  =      -390.42454485 eV

  energy  without entropy=     -390.42454485  energy(sigma->0) =     -390.42454485
 


--------------------------------------------------------------------------------------------------------


    POTLOK:  cpu time      1.0919: real time      1.0943


--------------------------------------------------------------------------------------------------------


 writing wavefunctions
     LOOP+:  cpu time    217.5874: real time    218.1947
    4ORBIT:  cpu time      0.0000: real time      0.0000

 total amount of memory used by VASP MPI-rank0   243244. kBytes
=======================================================================

   base      :      30000. kBytes
   nonlr-proj:       8527. kBytes
   fftplans  :      15882. kBytes
   grid      :      40992. kBytes
   one-center:        543. kBytes
   wavefun   :     147300. kBytes
 
  
  
 General timing and accounting informations for this job:
 ========================================================
  
                  Total CPU time used (sec):      220.813
                            User time (sec):      219.473
                          System time (sec):        1.340
                         Elapsed time (sec):      224.807
  
                   Maximum memory used (kb):     1420952.
                   Average memory used (kb):          N/A
  
                          Minor page faults:       226471
                          Major page faults:            0
                 Voluntary context switches:        14926
