 vasp.6.3.0 20Jan22 (build Apr  1 2022 16:44:48) gamma-only                      
 executed on        HPECrayEX_GCC date 2023.03.11  23:23:01
 running  768 mpi-ranks, with    1 threads/rank
 distrk:  each k-point on  768 cores,    1 groups
 distr:  one band on NCORE=   8 cores,   96 groups


--------------------------------------------------------------------------------------------------------


 INCAR:
   SYSTEM = MgO-rocksalt
   ISMEAR = 0
   SIGMA = 0.05
   EDIFF = 1E-6
   ALGO = ALL
   ISTART = 0
   IBRION = -1
   NSW = 0
   ISYM = 0
   DIPOL = 0.5 0.5 0.5
   IDIPOL = 3
   LDIPOL = .TRUE.
   GGA = PE
   IVDW = 1
   VDW_C6 = 0.14 0.70
   VDW_R0 = 1.001 1.342
   ENCUT = 520
   PREC = Accurate
   LASPH = .TRUE.
   LREAL = Auto
   ISPIN = 1
   NELM = 200
   NELMIN = 8
   NCORE = 8
   KPAR = 1
   LWAVE = .FALSE.
   LCHARG = .FALSE.

 POTCAR:    PAW_PBE H 15Jun2001                   
 POTCAR:    PAW_PBE O 08Apr2002                   
 POTCAR:    PAW_PBE H 15Jun2001                   
   SHA256 =  030f79b5d3ab3cf0e668861823c8fb652ff669f3e15e46930bd03bfd63a607b6 H/POTCAR              
   COPYR  = (c) Copyright 15Jun2001 Georg Kresse                                                    
   COPYR  = This file is part of the software VASP. Any use, copying, and all other rights are regul
   COPYR  = If you do not have a valid VASP license, you may not use, copy or distribute this file. 
   VRHFIN =H: ultrasoft test                                                                        
   LEXCH  = PE                                                                                      
   EATOM  =    12.4884 eV,    0.9179 Ry                                                             
                                                                                                    
   TITEL  = PAW_PBE H 15Jun2001                                                                     
   LULTRA =        F    use ultrasoft PP ?                                                          
   IUNSCR =        0    unscreen: 0-lin 1-nonlin 2-no                                               
   RPACOR =    0.000    partial core radius                                                         
   POMASS =    1.000; ZVAL   =    1.000    mass and valenz                                          
   RCORE  =    1.100    outmost cutoff radius                                                       
   RWIGS  =    0.700; RWIGS  =    0.370    wigner-seitz radius (au A)                               
   ENMAX  =  250.000; ENMIN  =  200.000 eV                                                          
   RCLOC  =    0.701    cutoff for local pot                                                        
   LCOR   =        T    correct aug charges                                                         
   LPAW   =        T    paw PP                                                                      
   EAUG   =  400.000                                                                                
   RMAX   =    1.123    core radius for proj-oper                                                   
   RAUG   =    1.200    factor for augmentation sphere                                              
   RDEP   =    1.112    radius for radial grids                                                     
   RDEPT  =    0.926    core radius for aug-charge                                                  
                                                                                                    
   Atomic configuration                                                                             
    2 entries                                                                                       
     n  l   j            E        occ.                                                              
     1  0  0.50        -6.4927   1.0000                                                             
     2  1  0.50        -3.4015   0.0000                                                             
   Description                                                                                      
     l       E           TYP  RCUT    TYP  RCUT                                                     
     0     -6.4927494     23  1.100                                                                 
     0      6.8029130     23  1.100                                                                 
     1     -4.0817478     23  1.100                                                                 
  local pseudopotential read in
  atomic valenz-charges read in
  non local Contribution for L=           0  read in
    real space projection operators read in
  non local Contribution for L=           0  read in
    real space projection operators read in
  non local Contribution for L=           1  read in
    real space projection operators read in
    PAW grid and wavefunctions read in

   number of l-projection  operators is LMAX  =           3
   number of lm-projection operators is LMMAX =           5

 POTCAR:    PAW_PBE O 08Apr2002                   
   SHA256 =  818f92134a0a090dccd8ba1447fa70422a3b330e708bb4f08108d8ae51209ddf O/POTCAR              
   COPYR  = (c) Copyright 08Apr2002 Georg Kresse                                                    
   COPYR  = This file is part of the software VASP. Any use, copying, and all other rights are regul
   COPYR  = If you do not have a valid VASP license, you may not use, copy or distribute this file. 
   VRHFIN =O: s2p4                                                                                  
   LEXCH  = PE                                                                                      
   EATOM  =   432.3788 eV,   31.7789 Ry                                                             
                                                                                                    
   TITEL  = PAW_PBE O 08Apr2002                                                                     
   LULTRA =        F    use ultrasoft PP ?                                                          
   IUNSCR =        1    unscreen: 0-lin 1-nonlin 2-no                                               
   RPACOR =    1.200    partial core radius                                                         
   POMASS =   16.000; ZVAL   =    6.000    mass and valenz                                          
   RCORE  =    1.520    outmost cutoff radius                                                       
   RWIGS  =    1.550; RWIGS  =    0.820    wigner-seitz radius (au A)                               
   ENMAX  =  400.000; ENMIN  =  300.000 eV                                                          
   ICORE  =        2    local potential                                                             
   LCOR   =        T    correct aug charges                                                         
   LPAW   =        T    paw PP                                                                      
   EAUG   =  605.392                                                                                
   DEXC   =    0.000                                                                                
   RMAX   =    1.553    core radius for proj-oper                                                   
   RAUG   =    1.300    factor for augmentation sphere                                              
   RDEP   =    1.550    radius for radial grids                                                     
   RDEPT  =    1.329    core radius for aug-charge                                                  
                                                                                                    
   Atomic configuration                                                                             
    4 entries                                                                                       
     n  l   j            E        occ.                                                              
     1  0  0.50      -514.6923   2.0000                                                             
     2  0  0.50       -23.9615   2.0000                                                             
     2  1  0.50        -9.0305   4.0000                                                             
     3  2  1.50        -9.5241   0.0000                                                             
   Description                                                                                      
     l       E           TYP  RCUT    TYP  RCUT                                                     
     0    -23.9615318     23  1.200                                                                 
     0     -9.5240782     23  1.200                                                                 
     1     -9.0304911     23  1.520                                                                 
     1      8.1634956     23  1.520                                                                 
     2     -9.5240782      7  1.500                                                                 
  local pseudopotential read in
  partial core-charges read in
  partial kinetic energy density read in
  kinetic energy density of atom read in
  atomic valenz-charges read in
  non local Contribution for L=           0  read in
    real space projection operators read in
  non local Contribution for L=           0  read in
    real space projection operators read in
  non local Contribution for L=           1  read in
    real space projection operators read in
  non local Contribution for L=           1  read in
    real space projection operators read in
    PAW grid and wavefunctions read in

   number of l-projection  operators is LMAX  =           4
   number of lm-projection operators is LMMAX =           8

 Optimization of the real space projectors (new method)

 maximal supplied QI-value         = 34.20
 optimisation between [QCUT,QGAM] = [ 11.63, 23.26] = [ 37.87,151.49] Ry 
 Optimized for a Real-space Cutoff    1.21 Angstroem

   l    n(q)    QCUT    max X(q) W(low)/X(q) W(high)/X(q)  e(spline) 
   0      8    11.629    19.460    0.17E-03    0.34E-03    0.21E-06
   0      8    11.629    12.209    0.16E-03    0.33E-03    0.21E-06
   1      8    11.629     4.655    0.18E-03    0.16E-03    0.26E-06
 Optimization of the real space projectors (new method)

 maximal supplied QI-value         = 24.76
 optimisation between [QCUT,QGAM] = [ 11.64, 23.27] = [ 37.91,151.63] Ry 
 Optimized for a Real-space Cutoff    1.14 Angstroem

   l    n(q)    QCUT    max X(q) W(low)/X(q) W(high)/X(q)  e(spline) 
   0      8    11.635    20.381    0.10E-03    0.33E-03    0.24E-06
   0      8    11.635    15.268    0.11E-03    0.35E-03    0.26E-06
   1      7    11.635     5.964    0.24E-03    0.31E-03    0.30E-06
   1      7    11.635     5.382    0.22E-03    0.25E-03    0.26E-06
  PAW_PBE H 15Jun2001                   :
 energy of atom  1       EATOM=  -12.4884
 kinetic energy error for atom=    0.0014 (will be added to EATOM!!)
  PAW_PBE O 08Apr2002                   :
 energy of atom  2       EATOM= -432.3788
 kinetic energy error for atom=    0.0208 (will be added to EATOM!!)


 POSCAR:  H  O
  positions in direct lattice
  No initial velocities read in
 exchange correlation table for  LEXCH =        8
   RHO(1)=    0.500       N(1)  =     2000
   RHO(2)=  100.500       N(2)  =     4000



--------------------------------------------------------------------------------------------------------


 ion  position               nearest neighbor table
   1  0.415  0.429  0.759-   9 0.98
   2  0.329  0.391  0.766-   9 0.96
   3  0.586  0.324  0.760-  10 0.98
   4  0.672  0.360  0.766-  10 0.96
   5  0.449  0.292  0.760-  11 0.98
   6  0.485  0.206  0.768-  11 0.96
   7  0.553  0.464  0.760-  12 0.98
   8  0.516  0.550  0.762-  12 0.96
   9  0.384  0.380  0.755-   2 0.96   1 0.98
  10  0.618  0.372  0.755-   4 0.96   3 0.98
  11  0.497  0.259  0.755-   6 0.96   5 0.98
  12  0.504  0.494  0.755-   8 0.96   7 0.98


IMPORTANT INFORMATION: All symmetrisations will be switched off!
NOSYMM: (Re-)initialisation of all symmetry stuff for point group C_1.


----------------------------------------------------------------------------------------

                                     Primitive cell                                     

  volume of cell :    6019.7037

  direct lattice vectors                    reciprocal lattice vectors
    16.809723990  0.000000000  0.000000000     0.059489377  0.000000000  0.000000000
     0.000000000 16.809723990  0.000000000     0.000000000  0.059489377  0.000000000
     0.000000000  0.000000000 21.303646496     0.000000000  0.000000000  0.046940321

  length of vectors
    16.809723990 16.809723990 21.303646496     0.059489377  0.059489377  0.046940321

  position of ions in fractional coordinates (direct lattice)
     0.414979739  0.428725290  0.759282617
     0.329126468  0.391283566  0.765839209
     0.585509475  0.324206970  0.760257342
     0.672236373  0.359981501  0.765572115
     0.448732982  0.291998748  0.759906797
     0.484971996  0.205798949  0.767955448
     0.553478713  0.463521880  0.759576989
     0.515772960  0.549672911  0.762273890
     0.383555896  0.379972938  0.754764871
     0.617908986  0.372225412  0.754787365
     0.496740562  0.259459590  0.754916559
     0.504426301  0.494262663  0.754579490

  ion indices of the primitive-cell ions
   primitive index   ion index
                 1           1
                 2           2
                 3           3
                 4           4
                 5           5
                 6           6
                 7           7
                 8           8
                 9           9
                10          10
                11          11
                12          12

----------------------------------------------------------------------------------------



 KPOINTS: pymatgen v2020.8.13 with grid density = 

Automatic generation of k-mesh.
 Grid dimensions read from file:
 generate k-points for:    1    1    1

 Generating k-lattice:

  Cartesian coordinates                     Fractional coordinates (reciprocal lattice)
     0.059489377  0.000000000  0.000000000     1.000000000  0.000000000  0.000000000
     0.000000000  0.059489377  0.000000000     0.000000000  1.000000000  0.000000000
     0.000000000  0.000000000  0.046940321     0.000000000  0.000000000  1.000000000

  Length of vectors
     0.059489377  0.059489377  0.046940321

  Shift w.r.t. Gamma in fractional coordinates (k-lattice)
     0.000000000  0.000000000  0.000000000

 
 Subroutine IBZKPT returns following result:
 ===========================================
 
 Found      1 irreducible k-points:
 
 Following reciprocal coordinates:
            Coordinates               Weight
  0.000000  0.000000  0.000000      1.000000
 
 Following cartesian coordinates:
            Coordinates               Weight
  0.000000  0.000000  0.000000      1.000000
 


--------------------------------------------------------------------------------------------------------




 Dimension of arrays:
   k-points           NKPTS =      1   k-points in BZ     NKDIM =      1   number of bands    NBANDS=     96
   number of dos      NEDOS =    301   number of ions     NIONS =     12
   non local maximal  LDIM  =      4   non local SUM 2l+1 LMDIM =      8
   total plane-waves  NPLWV = ******
   max r-space proj   IRMAX =   3187   max aug-charges    IRDMAX=   5673
   dimension x,y,z NGX =   126 NGY =  126 NGZ =  160
   dimension x,y,z NGXF=   252 NGYF=  252 NGZF=  320
   support grid    NGXF=   252 NGYF=  252 NGZF=  320
   ions per type =               8   4
   NGX,Y,Z   is equivalent  to a cutoff of  12.46, 12.46, 12.49 a.u.
   NGXF,Y,Z  is equivalent  to a cutoff of  24.92, 24.92, 24.97 a.u.

 SYSTEM =  MgO-rocksalt                            
 POSCAR =   H  O                                   

--------------------------------------------------------------------------------------------------------


  energy-cutoff  :      520.00
  volume of cell :     6019.70
      direct lattice vectors                 reciprocal lattice vectors
    16.809723990  0.000000000  0.000000000     0.059489377  0.000000000  0.000000000
     0.000000000 16.809723990  0.000000000     0.000000000  0.059489377  0.000000000
     0.000000000  0.000000000 21.303646496     0.000000000  0.000000000  0.046940321

  length of vectors
    16.809723990 16.809723990 21.303646496     0.059489377  0.059489377  0.046940321



 k-points in units of 2pi/SCALE and weight: pymatgen v2020.8.13 with grid density = 
   0.00000000  0.00000000  0.00000000       1.000

 k-points in reciprocal lattice and weights: pymatgen v2020.8.13 with grid density = 
   0.00000000  0.00000000  0.00000000       1.000

 position of ions in fractional coordinates (direct lattice) 
   0.41497974  0.42872529  0.75928262
   0.32912647  0.39128357  0.76583921
   0.58550947  0.32420697  0.76025734
   0.67223637  0.35998150  0.76557212
   0.44873298  0.29199875  0.75990680
   0.48497200  0.20579895  0.76795545
   0.55347871  0.46352188  0.75957699
   0.51577296  0.54967291  0.76227389
   0.38355590  0.37997294  0.75476487
   0.61790899  0.37222541  0.75478737
   0.49674056  0.25945959  0.75491656
   0.50442630  0.49426266  0.75457949

 position of ions in cartesian coordinates  (Angst):
   6.97569487  7.20675379 16.17548847
   5.53252508  6.57736874 16.31516778
   9.84225267  5.44982969 16.19625367
  11.30010789  6.05118968 16.30947771
   7.54307758  4.90841836 16.18878578
   8.15224540  3.45942353 16.36025138
   9.30382440  7.79167487 16.18175965
   8.67000110  9.23984991 16.23921350
   6.44746874  6.38724021 16.07924399
  10.38687950  6.25700644 16.07972321
   8.35007174  4.36144410 16.08247552
   8.47926689  8.30841895 16.07529471



--------------------------------------------------------------------------------------------------------


--------------------------------------- Iteration      FINAL  ---------------------------------------


--------------------OUTCAR has been truncated-------------------------


--------------------OUTCAR has been truncated-------------------------


--------------------OUTCAR has been truncated-------------------------


--------------------OUTCAR has been truncated-------------------------


--------------------OUTCAR has been truncated-------------------------


--------------------OUTCAR has been truncated-------------------------


--------------------OUTCAR has been truncated-------------------------


--------------------OUTCAR has been truncated-------------------------


--------------------OUTCAR has been truncated-------------------------


--------------------OUTCAR has been truncated-------------------------


  DFT-D2 method for vdW energy calculation
  -------------------------------------------------------------------

  Parameters of vdW forcefield:
         C6(Jnm^6/mol)     R0(A)
   -----------------------------
   H        0.140          1.001
   O        0.700          1.342

  vdW correction parametrized for the method pbe       

  IVDW =   1
  VDW_RADIUS =    50.000 A
  VDW_S6 =     0.750
  VDW_SR =     1.000
  VDW_D =    20.000
  LVDW_EWALD = F

  Number of pair interactions contributing to vdW energy:    6735
  Edisp (eV):   -0.10905
    FORVDW:  cpu time      0.0020: real time      0.0020

  FORCE on cell =-STRESS in cart. coord.  units (eV):
  Direction    XX          YY          ZZ          XY          YZ          ZX
  --------------------------------------------------------------------------------------
  Alpha Z     0.59605     0.59605     0.59605
  Ewald     982.35283   984.06148  -547.83588    -0.00049   -15.14856    -3.22142
  Hartree  1377.71573  1379.65280   245.00135     0.09220    -4.79648    -0.47239
  E(xc)    -144.51161  -144.51196  -146.37791     0.00082    -0.04871    -0.01516
  Local   -2688.34787 -2692.26632  -125.68911    -0.18259    16.52895     2.62896
  n-local  -123.38583  -123.38162  -124.08563     0.00616    -0.03757     0.03011
  augment    25.79901    25.81297    32.39517     0.00277     0.22686     0.07079
  Kinetic   570.08047   570.23946   665.83197     0.05824     3.24500     0.95862
  Fock        0.00000     0.00000     0.00000     0.00000     0.00000     0.00000
  vdW        -0.15530    -0.15510    -0.00023    -0.00040     0.00114     0.00038
  -------------------------------------------------------------------------------------
  Total       0.14348     0.04776    -0.16422    -0.02330    -0.02938    -0.02011
  in kB       0.03819     0.01271    -0.04371    -0.00620    -0.00782    -0.00535
  external pressure =        0.00 kB  Pullay stress =        0.00 kB


 VOLUME and BASIS-vectors are now :
 -----------------------------------------------------------------------------
  energy-cutoff  :      520.00
  volume of cell :     6019.70
      direct lattice vectors                 reciprocal lattice vectors
    16.809723990  0.000000000  0.000000000     0.059489377  0.000000000  0.000000000
     0.000000000 16.809723990  0.000000000     0.000000000  0.059489377  0.000000000
     0.000000000  0.000000000 21.303646496     0.000000000  0.000000000  0.046940321

  length of vectors
    16.809723990 16.809723990 21.303646496     0.059489377  0.059489377  0.046940321


 FORCES acting on ions:
    Electron-Ion                     Ewald-Force                    Non-Local-Force
 -----------------------------------------------------------------------------------------------
   -.128E+02 -.673E+02 -.930E+01   0.177E+02 0.742E+02 0.996E+01   -.465E+01 -.670E+01 -.684E+00
   0.104E+03 -.164E+02 -.224E+02   -.112E+03 0.180E+02 0.246E+02   0.819E+01 -.147E+01 -.202E+01
   0.136E+02 0.656E+02 -.114E+02   -.186E+02 -.725E+02 0.122E+02   0.475E+01 0.656E+01 -.846E+00
   -.104E+03 0.179E+02 -.218E+02   0.112E+03 -.196E+02 0.238E+02   -.817E+01 0.161E+01 -.196E+01
   0.655E+02 -.138E+02 -.103E+02   -.724E+02 0.187E+02 0.110E+02   0.656E+01 -.477E+01 -.747E+00
   0.171E+02 0.103E+03 -.265E+02   -.188E+02 -.111E+03 0.290E+02   0.153E+01 0.806E+01 -.237E+01
   -.682E+02 0.120E+02 -.105E+02   0.753E+02 -.168E+02 0.112E+02   -.677E+01 0.458E+01 -.795E+00
   -.164E+02 -.105E+03 -.153E+02   0.180E+02 0.113E+03 0.167E+02   -.146E+01 -.829E+01 -.138E+01
   0.140E+03 0.334E+02 0.198E+02   -.123E+03 -.693E+02 -.347E+02   -.170E+02 0.355E+02 0.148E+02
   -.140E+03 -.347E+02 0.203E+02   0.124E+03 0.708E+02 -.356E+02   0.165E+02 -.355E+02 0.153E+02
   -.336E+02 0.142E+03 0.223E+02   0.692E+02 -.126E+03 -.393E+02   -.351E+02 -.158E+02 0.170E+02
   0.343E+02 -.138E+03 0.168E+02   -.706E+02 0.120E+03 -.289E+02   0.358E+02 0.181E+02 0.121E+02
 -----------------------------------------------------------------------------------------------
   -.282E+00 -.184E+01 -.483E+02   0.142E-13 0.000E+00 0.000E+00   0.284E+00 0.183E+01 0.483E+02


 POSITION                                       TOTAL-FORCE (eV/Angst)
 -----------------------------------------------------------------------------------
      6.97569      7.20675     16.17549         0.235526      0.276808     -0.030230
      5.53253      6.57737     16.31517        -0.165956      0.136265      0.099716
      9.84225      5.44983     16.19625        -0.228085     -0.273870     -0.040894
     11.30011      6.05119     16.30948         0.159456     -0.141332      0.097720
      7.54308      4.90842     16.18879        -0.282535      0.223460     -0.028404
      8.15225      3.45942     16.36025        -0.131383     -0.136099      0.107830
      9.30382      7.79167     16.18176         0.288769     -0.260545     -0.039012
      8.67000      9.23985     16.23921         0.132114      0.119986      0.066093
      6.44747      6.38724     16.07924         0.110434     -0.472758     -0.069894
     10.38688      6.25701     16.07972        -0.100256      0.512629     -0.059265
      8.35007      4.36144     16.08248         0.484914      0.075104     -0.077552
      8.47927      8.30842     16.07529        -0.503001     -0.059647     -0.026110
 -----------------------------------------------------------------------------------
    total drift:                                0.002014     -0.003898     -0.002335


--------------------------------------------------------------------------------------------------------



  FREE ENERGIE OF THE ION-ELECTRON SYSTEM (eV)
  ---------------------------------------------------
  free  energy   TOTEN  =       -58.11321731 eV

  energy  without entropy=      -58.11321731  energy(sigma->0) =      -58.11321731



--------------------------------------------------------------------------------------------------------


    POTLOK:  cpu time      0.1779: real time      0.1779


--------------------------------------------------------------------------------------------------------


     LOOP+:  cpu time     33.6524: real time     33.8024
    4ORBIT:  cpu time      0.0000: real time      0.0000

 total amount of memory used by VASP MPI-rank0    57503. kBytes
=======================================================================

   base      :      30000. kBytes
   nonlr-proj:        237. kBytes
   fftplans  :       9304. kBytes
   grid      :      17470. kBytes
   one-center:          3. kBytes
   wavefun   :        489. kBytes

  
  
 General timing and accounting informations for this job:
 ========================================================
  
                  Total CPU time used (sec):       81.387
                            User time (sec):       79.914
                          System time (sec):        1.472
                         Elapsed time (sec):      100.692
  
                   Maximum memory used (kb):      158220.
                   Average memory used (kb):          N/A
  
                          Minor page faults:        21776
                          Major page faults:            0
                 Voluntary context switches:        18218
