 **********************************************************************
                          MRCC program system
 **********************************************************************
 
                              Written by
     Mihaly Kallay, Peter R. Nagy, David Mester, Laszlo Gyevi-Nagy,
        Jozsef Csoka, P. Bernat Szabo, Zoltan Rolik, Gyula Samu,
     Jozsef Csontos, Bence Hegely, Adam Ganyecz, Istvan Ladjanszki,
       Lorant Szegedy, Bence Ladoczki, Klara Petrov, Mate Farkas,
                    Pal D. Mezei, and Reka A. Horvath
 
        Department of Physical Chemistry and Materials Science
            Budapest University of Technology and Economics
                  Budapest P.O.Box 91, H-1521 Hungary
 
                              www.mrcc.hu
 
                      Release date: March 18, 2022

 ************************ 2023-02-05 13:13:14 *************************
 Executing minp...

 Reading input from MINP...
 
 Input file:
 
calc=FNO-CCSD(T)
verbosity=3
mem=220GB
unit=angs
scfiguess=small
scfalg=locfit1
ccmaxit=400
ccsdalg=dfdirect
ccsdthreads=4
ccsdmkl=thr
ptthreads=4
lnoepsv=1e-5
naf_cor=1e-2
basis=aug-cc-pVQZ
basis_sm=def2-SVP
dfbasis_scf=def2-QZVPP-RI-JK
dfbasis_cor=aug-cc-pVQZ-RI
unit=angs
geom=xyz
16

C    34.41670262    34.07107264    10.41543014
C    33.11117461    33.45680459    10.91530835
H    34.24160149    35.00442132     9.86225048
H    34.94674030    33.36940783     9.75379242
H    35.10002891    34.30603621    11.24227357
H    32.42643037    33.26105434    10.07939442
H    32.59136835    34.12756100    11.61262818
H    33.28915165    32.50678735    11.43686767
C    34.41670262    17.18910333    10.41543014
C    33.11117461    16.57483529    10.91530835
H    34.24160149    18.12245202     9.86225048
H    34.94674030    16.48743852     9.75379242
H    35.10002891    17.42406690    11.24227357
H    32.42643037    16.37908503    10.07939442
H    32.59136835    17.24559169    11.61262818
H    33.28915165    15.62481804    11.43686767

--------------------Output has been truncated-------------------------


--------------------Output has been truncated-------------------------


--------------------Output has been truncated-------------------------


--------------------Output has been truncated-------------------------


--------------------Output has been truncated-------------------------


--------------------Output has been truncated-------------------------


--------------------Output has been truncated-------------------------


--------------------Output has been truncated-------------------------


--------------------Output has been truncated-------------------------


--------------------Output has been truncated-------------------------


 
 Reference energy [au]:                       -79.264437034625
 DF-MP2 singlet pair energy [au]:              -0.317722282988
 DF-MP2 triplet pair energy [au]:              -0.076906316306
 DF-SCS-MP2 correlation energy [au]:           -0.406902178354
 DF-SCS-MP2 energy [au]:                      -79.671339212980
 DF-SOS-MP2 correlation energy [au]:           -0.413038967885
 DF-SOS-MP2 energy [au]:                      -79.677476002510
 DF-MP2 correlation energy [au]:               -0.394628599294
 DF-MP2 energy [au]:                          -79.659065633919

 Results in FNO basis:
 
 
 Reference energy [au]:                       -79.264437034625
 DF-MP2 singlet pair energy [au]:              -0.312548722721
 DF-MP2 triplet pair energy [au]:              -0.076620435280
 DF-SCS-MP2 correlation energy [au]:           -0.400598612359
 DF-SCS-MP2 energy [au]:                      -79.665035646984
 DF-SOS-MP2 correlation energy [au]:           -0.406313339538
 DF-SOS-MP2 energy [au]:                      -79.670750374163
 DF-MP2 correlation energy [au]:               -0.389169158001
 DF-MP2 energy [au]:                          -79.653606192626

 Results in NAF basis:
 
 
 Reference energy [au]:                       -79.264437034625
 DF-MP2 singlet pair energy [au]:              -0.312527760530
 DF-MP2 triplet pair energy [au]:              -0.076628441764
 DF-SCS-MP2 correlation energy [au]:           -0.400576126558
 DF-SCS-MP2 energy [au]:                      -79.665013161183
 DF-SOS-MP2 correlation energy [au]:           -0.406286088689
 DF-SOS-MP2 energy [au]:                      -79.670723123315
 DF-MP2 correlation energy [au]:               -0.389156202294
 DF-MP2 energy [au]:                          -79.653593236919

 ************************ 2023-02-05 13:14:43 *************************
 Executing ccsd...

 Allocation of 220.0 Gbytes of memory...

 Direct DF-CCSD(T) calculation
 
 Convergence criterion:  1.0E-06
 
 Number of occupied/virtual/auxiliary orbitals:     7   175   551
    851.32 MB is the minimal memory requirement for (T)
    190.43 MB is the minimal memory requirement for CCSD
 
 Reference energy [au]:             -79.264437034625
 T1 contribution [au]:                0.000000000000
 Same spin MP2 energy [au]:          -0.076624435959
 Opposite spin MP2 energy [au]:      -0.312538236918
 MP2 correlation energy [au]:        -0.389162672877
 Total MP2 energy [au]:             -79.653599707502
 MP2 correction [au]:                -0.005465926417
 
 
 CPU time [min]:     0.402                   Wall time [min]:     0.050
 
 Starting CCSD iterations...
 
                     Residual norm          Energy
 Iteration  1        0.179604447131      -79.671512644657
 Iteration  2        0.044511311073      -79.681094808521
 Iteration  3        0.013089807399      -79.682230532663
 Iteration  4        0.002650290083      -79.682237755383
 Iteration  5        0.000560968348      -79.682243620630
 Iteration  6        0.000156931296      -79.682245671483
 Iteration  7        0.000037096202      -79.682245446428
 Iteration  8        0.000009998710      -79.682245810316
 
 CCSD iteration has converged in  8 steps.
     3804.92 MB memory was utilized by CCSD
 
 T1 diagnostic:      8.231E-03            D1 diagnostic:      1.428E-02
 
 T1 contribution [au]:                                  0.000000000000
 PPL energy contribution [au]:                          0.108935359907
 Scaled PPL energy contribution [au]:                   0.110475080727

 OS-PPL energy contribution [au]:                       0.095542153522
 Scaled OS-PPL energy contribution [au]:                0.097137056372
 SS-PPL energy contribution [au]:                       0.013393206385
 Scaled SS-PPL energy contribution [au]:                0.013441283406

 Opposite spin CCSD energy [au]:                       -0.345140092808
 Same spin CCSD energy [au]:                           -0.072676435690
 CCSD correlation energy [au]:                         -0.417816528497
 CCSD correlation energy + MP2 correction [au]:        -0.423282454914
 CCSD correlation energy + MP2 + PPL corr. [au]:       -0.421742734094
 Total CCSD energy [au]:                              -79.682253563122
 Total CCSD energy + MP2 correction [au]:             -79.687719489539
 Total CCSD energy + MP2 + PPL corr. [au]:            -79.686179768719
 
 CPU time [min]:     6.457                   Wall time [min]:     0.236
 
 Calculation of (T) correction...
 
 
      783.34 MB memory is utilized for (T)

 0%       25%       50%       75%       100%
 |---------|---------|---------|---------| 
 
 (T) correction [au]:                                    -0.014762651063
 (T*) correction [au]:                                   -0.014969997682
 (T+) correction [au]:                                   -0.014966466250
 CCSD(T) correlation energy [au]:                        -0.432579179560
 CCSD(T) correlation energy + MP2 correction [au]:       -0.438045105977
 CCSD(T+) correlation en. + MP2 + PPL corr. [au]:        -0.436709200344
 Total CCSD(T) energy [au]:                             -79.697016214185
 Total CCSD(T) energy + MP2 correction [au]:            -79.702482140602
 Total CCSD(T+) energy + MP2 + PPL corr. [au]:          -79.701146234969
 
 CPU time [min]:     8.179                   Wall time [min]:     0.293
 
 ************************ 2023-02-05 13:15:01 *************************
                      Normal termination of mrcc.
 **********************************************************************
