 vasp.6.3.0 20Jan22 (build Apr  1 2022 16:44:48) gamma-only                      
 executed on        HPECrayEX_GCC date 2023.02.21  01:48:42
 running  512 mpi-ranks, with    1 threads/rank
 distrk:  each k-point on  512 cores,    1 groups
 distr:  one band on NCORE=   8 cores,   64 groups


--------------------------------------------------------------------------------------------------------


 INCAR:
   SYSTEM = MgO-rocksalt
   ISMEAR = 0
   SIGMA = 0.05
   EDIFF = 1E-6
   ALGO = ALL
   ISTART = 0
   IBRION = -1
   NSW = 0
   ISYM = 0
   DIPOL = 0.5 0.5 0.5
   IDIPOL = 3
   LDIPOL = .TRUE.
   GGA = PE
   IVDW = 1
   VDW_C6 = 1.75 0.70 0.14
   VDW_R0 = 1.452 1.342 1.001
   ENCUT = 520
   PREC = Accurate
   LASPH = .TRUE.
   LREAL = Auto
   ISPIN = 1
   NELM = 200
   NELMIN = 8
   NCORE = 8
   KPAR = 1
   LWAVE = .FALSE.
   LCHARG = .FALSE.

 POTCAR:    PAW_PBE C 08Apr2002                   
 POTCAR:    PAW_PBE O 08Apr2002                   
 POTCAR:    PAW_PBE H 15Jun2001                   
 POTCAR:    PAW_PBE C 08Apr2002                   
   SHA256 =  253f7b50bb8d59471dbedb8285d89021f4a42ed1a2c5d38a03a736e69125dd95 C/POTCAR              
   COPYR  = (c) Copyright 08Apr2002 Georg Kresse                                                    
   COPYR  = This file is part of the software VASP. Any use, copying, and all other rights are regul
   COPYR  = If you do not have a valid VASP license, you may not use, copy or distribute this file. 
   VRHFIN =C: s2p2                                                                                  
   LEXCH  = PE                                                                                      
   EATOM  =   147.1560 eV,   10.8157 Ry                                                             
                                                                                                    
   TITEL  = PAW_PBE C 08Apr2002                                                                     
   LULTRA =        F    use ultrasoft PP ?                                                          
   IUNSCR =        1    unscreen: 0-lin 1-nonlin 2-no                                               
   RPACOR =    1.200    partial core radius                                                         
   POMASS =   12.011; ZVAL   =    4.000    mass and valenz                                          
   RCORE  =    1.500    outmost cutoff radius                                                       
   RWIGS  =    1.630; RWIGS  =    0.863    wigner-seitz radius (au A)                               
   ENMAX  =  400.000; ENMIN  =  300.000 eV                                                          
   ICORE  =        2    local potential                                                             
   LCOR   =        T    correct aug charges                                                         
   LPAW   =        T    paw PP                                                                      
   EAUG   =  644.873                                                                                
   DEXC   =    0.000                                                                                
   RMAX   =    1.529    core radius for proj-oper                                                   
   RAUG   =    1.300    factor for augmentation sphere                                              
   RDEP   =    1.501    radius for radial grids                                                     
   RDEPT  =    1.300    core radius for aug-charge                                                  
                                                                                                    
   Atomic configuration                                                                             
    4 entries                                                                                       
     n  l   j            E        occ.                                                              
     1  0  0.50      -273.3789   2.0000                                                             
     2  0  0.50       -13.7508   2.0000                                                             
     2  1  0.50        -5.2854   2.0000                                                             
     3  2  1.50        -5.4423   0.0000                                                             
   Description                                                                                      
     l       E           TYP  RCUT    TYP  RCUT                                                     
     0    -13.7508458     23  1.200                                                                 
     0     -8.2022199     23  1.200                                                                 
     1     -5.2854383     23  1.500                                                                 
     1     34.0145650     23  1.500                                                                 
     2     -5.4423304      7  1.500                                                                 
  local pseudopotential read in
  partial core-charges read in
  partial kinetic energy density read in
  atomic valenz-charges read in
  non local Contribution for L=           0  read in
    real space projection operators read in
  non local Contribution for L=           0  read in
    real space projection operators read in
  non local Contribution for L=           1  read in
    real space projection operators read in
  non local Contribution for L=           1  read in
    real space projection operators read in
    PAW grid and wavefunctions read in

   number of l-projection  operators is LMAX  =           4
   number of lm-projection operators is LMMAX =           8

 POTCAR:    PAW_PBE O 08Apr2002                   
   SHA256 =  818f92134a0a090dccd8ba1447fa70422a3b330e708bb4f08108d8ae51209ddf O/POTCAR              
   COPYR  = (c) Copyright 08Apr2002 Georg Kresse                                                    
   COPYR  = This file is part of the software VASP. Any use, copying, and all other rights are regul
   COPYR  = If you do not have a valid VASP license, you may not use, copy or distribute this file. 
   VRHFIN =O: s2p4                                                                                  
   LEXCH  = PE                                                                                      
   EATOM  =   432.3788 eV,   31.7789 Ry                                                             
                                                                                                    
   TITEL  = PAW_PBE O 08Apr2002                                                                     
   LULTRA =        F    use ultrasoft PP ?                                                          
   IUNSCR =        1    unscreen: 0-lin 1-nonlin 2-no                                               
   RPACOR =    1.200    partial core radius                                                         
   POMASS =   16.000; ZVAL   =    6.000    mass and valenz                                          
   RCORE  =    1.520    outmost cutoff radius                                                       
   RWIGS  =    1.550; RWIGS  =    0.820    wigner-seitz radius (au A)                               
   ENMAX  =  400.000; ENMIN  =  300.000 eV                                                          
   ICORE  =        2    local potential                                                             
   LCOR   =        T    correct aug charges                                                         
   LPAW   =        T    paw PP                                                                      
   EAUG   =  605.392                                                                                
   DEXC   =    0.000                                                                                
   RMAX   =    1.553    core radius for proj-oper                                                   
   RAUG   =    1.300    factor for augmentation sphere                                              
   RDEP   =    1.550    radius for radial grids                                                     
   RDEPT  =    1.329    core radius for aug-charge                                                  
                                                                                                    
   Atomic configuration                                                                             
    4 entries                                                                                       
     n  l   j            E        occ.                                                              
     1  0  0.50      -514.6923   2.0000                                                             
     2  0  0.50       -23.9615   2.0000                                                             
     2  1  0.50        -9.0305   4.0000                                                             
     3  2  1.50        -9.5241   0.0000                                                             
   Description                                                                                      
     l       E           TYP  RCUT    TYP  RCUT                                                     
     0    -23.9615318     23  1.200                                                                 
     0     -9.5240782     23  1.200                                                                 
     1     -9.0304911     23  1.520                                                                 
     1      8.1634956     23  1.520                                                                 
     2     -9.5240782      7  1.500                                                                 
  local pseudopotential read in
  partial core-charges read in
  partial kinetic energy density read in
  kinetic energy density of atom read in
  atomic valenz-charges read in
  non local Contribution for L=           0  read in
    real space projection operators read in
  non local Contribution for L=           0  read in
    real space projection operators read in
  non local Contribution for L=           1  read in
    real space projection operators read in
  non local Contribution for L=           1  read in
    real space projection operators read in
    PAW grid and wavefunctions read in

   number of l-projection  operators is LMAX  =           4
   number of lm-projection operators is LMMAX =           8

 POTCAR:    PAW_PBE H 15Jun2001                   
   SHA256 =  030f79b5d3ab3cf0e668861823c8fb652ff669f3e15e46930bd03bfd63a607b6 H/POTCAR              
   COPYR  = (c) Copyright 15Jun2001 Georg Kresse                                                    
   COPYR  = This file is part of the software VASP. Any use, copying, and all other rights are regul
   COPYR  = If you do not have a valid VASP license, you may not use, copy or distribute this file. 
   VRHFIN =H: ultrasoft test                                                                        
   LEXCH  = PE                                                                                      
   EATOM  =    12.4884 eV,    0.9179 Ry                                                             
                                                                                                    
   TITEL  = PAW_PBE H 15Jun2001                                                                     
   LULTRA =        F    use ultrasoft PP ?                                                          
   IUNSCR =        0    unscreen: 0-lin 1-nonlin 2-no                                               
   RPACOR =    0.000    partial core radius                                                         
   POMASS =    1.000; ZVAL   =    1.000    mass and valenz                                          
   RCORE  =    1.100    outmost cutoff radius                                                       
   RWIGS  =    0.700; RWIGS  =    0.370    wigner-seitz radius (au A)                               
   ENMAX  =  250.000; ENMIN  =  200.000 eV                                                          
   RCLOC  =    0.701    cutoff for local pot                                                        
   LCOR   =        T    correct aug charges                                                         
   LPAW   =        T    paw PP                                                                      
   EAUG   =  400.000                                                                                
   RMAX   =    1.123    core radius for proj-oper                                                   
   RAUG   =    1.200    factor for augmentation sphere                                              
   RDEP   =    1.112    radius for radial grids                                                     
   RDEPT  =    0.926    core radius for aug-charge                                                  
                                                                                                    
   Atomic configuration                                                                             
    2 entries                                                                                       
     n  l   j            E        occ.                                                              
     1  0  0.50        -6.4927   1.0000                                                             
     2  1  0.50        -3.4015   0.0000                                                             
   Description                                                                                      
     l       E           TYP  RCUT    TYP  RCUT                                                     
     0     -6.4927494     23  1.100                                                                 
     0      6.8029130     23  1.100                                                                 
     1     -4.0817478     23  1.100                                                                 
  local pseudopotential read in
  atomic valenz-charges read in
  non local Contribution for L=           0  read in
    real space projection operators read in
  non local Contribution for L=           0  read in
    real space projection operators read in
  non local Contribution for L=           1  read in
    real space projection operators read in
    PAW grid and wavefunctions read in

   number of l-projection  operators is LMAX  =           3
   number of lm-projection operators is LMMAX =           5

 Optimization of the real space projectors (new method)

 maximal supplied QI-value         = 25.13
 optimisation between [QCUT,QGAM] = [ 11.56, 23.12] = [ 37.43,149.72] Ry 
 Optimized for a Real-space Cutoff    1.04 Angstroem

   l    n(q)    QCUT    max X(q) W(low)/X(q) W(high)/X(q)  e(spline) 
   0      7    11.561   115.676    0.20E-03    0.60E-03    0.21E-06
   0      7    11.561    87.132    0.20E-03    0.59E-03    0.21E-06
   1      7    11.561     4.429    0.23E-03    0.35E-03    0.15E-06
   1      7    11.561     2.733    0.18E-03    0.25E-03    0.12E-06
 Optimization of the real space projectors (new method)

 maximal supplied QI-value         = 24.76
 optimisation between [QCUT,QGAM] = [ 11.64, 23.27] = [ 37.91,151.63] Ry 
 Optimized for a Real-space Cutoff    1.14 Angstroem

   l    n(q)    QCUT    max X(q) W(low)/X(q) W(high)/X(q)  e(spline) 
   0      8    11.635    20.381    0.10E-03    0.33E-03    0.24E-06
   0      8    11.635    15.268    0.11E-03    0.35E-03    0.26E-06
   1      7    11.635     5.964    0.24E-03    0.31E-03    0.30E-06
   1      7    11.635     5.382    0.22E-03    0.25E-03    0.26E-06
 Optimization of the real space projectors (new method)

 maximal supplied QI-value         = 34.20
 optimisation between [QCUT,QGAM] = [ 11.63, 23.26] = [ 37.87,151.49] Ry 
 Optimized for a Real-space Cutoff    1.21 Angstroem

   l    n(q)    QCUT    max X(q) W(low)/X(q) W(high)/X(q)  e(spline) 
   0      8    11.629    19.460    0.17E-03    0.34E-03    0.21E-06
   0      8    11.629    12.209    0.16E-03    0.33E-03    0.21E-06
   1      8    11.629     4.655    0.18E-03    0.16E-03    0.26E-06
  PAW_PBE C 08Apr2002                   :
 energy of atom  1       EATOM= -147.1560
 kinetic energy error for atom=    0.0071 (will be added to EATOM!!)
  PAW_PBE O 08Apr2002                   :
 energy of atom  2       EATOM= -432.3788
 kinetic energy error for atom=    0.0208 (will be added to EATOM!!)
  PAW_PBE H 15Jun2001                   :
 energy of atom  3       EATOM=  -12.4884
 kinetic energy error for atom=    0.0014 (will be added to EATOM!!)


 POSCAR:  C  O  H
  positions in direct lattice
  No initial velocities read in
 exchange correlation table for  LEXCH =        8
   RHO(1)=    0.500       N(1)  =     2000
   RHO(2)=  100.500       N(2)  =     4000



--------------------------------------------------------------------------------------------------------


 ion  position               nearest neighbor table
   1  0.522  0.558  0.802-  12 1.09  11 1.10   9 1.10   5 1.46
   2  0.317  0.397  0.802-  16 1.09  15 1.10  13 1.10   6 1.46
   3  0.479  0.192  0.802-  20 1.09  19 1.10  17 1.10   7 1.46
   4  0.683  0.353  0.802-  24 1.09  23 1.10  21 1.10   8 1.46
   5  0.506  0.491  0.761-  10 0.99   1 1.46
   6  0.384  0.381  0.761-  14 0.99   2 1.46
   7  0.494  0.259  0.761-  18 0.99   3 1.46
   8  0.616  0.369  0.761-  22 0.99   4 1.46
   9  0.520  0.539  0.851-   1 1.10
  10  0.551  0.454  0.765-   5 0.99
  11  0.579  0.584  0.791-   1 1.10
  12  0.476  0.601  0.793-   1 1.09
  13  0.336  0.395  0.851-   2 1.10
  14  0.421  0.426  0.765-   6 0.99
  15  0.291  0.454  0.791-   2 1.10
  16  0.274  0.351  0.793-   2 1.09
  17  0.480  0.211  0.851-   3 1.10
  18  0.449  0.296  0.765-   7 0.99
  19  0.422  0.166  0.791-   3 1.10
  20  0.525  0.149  0.793-   3 1.09
  21  0.664  0.355  0.851-   4 1.10
  22  0.579  0.324  0.765-   8 0.99
  23  0.709  0.296  0.791-   4 1.10
  24  0.726  0.399  0.793-   4 1.09


IMPORTANT INFORMATION: All symmetrisations will be switched off!
NOSYMM: (Re-)initialisation of all symmetry stuff for point group C_1.


----------------------------------------------------------------------------------------

                                     Primitive cell                                     

  volume of cell :    6254.6868

  direct lattice vectors                    reciprocal lattice vectors
    17.092227251  0.000000000  0.000000000     0.058506126  0.000000000  0.000000000
     0.000000000 17.092227251  0.000000000     0.000000000  0.058506126  0.000000000
     0.000000000  0.000000000 21.409585219     0.000000000  0.000000000  0.046708051

  length of vectors
    17.092227251 17.092227251 21.409585219     0.058506126  0.058506126  0.046708051

  position of ions in fractional coordinates (direct lattice)
     0.521520804  0.557823483  0.802067252
     0.317445899  0.396756887  0.801969814
     0.478579712  0.192191054  0.802139532
     0.682643646  0.353460659  0.802034303
     0.506497901  0.491192476  0.761296975
     0.384094608  0.381396845  0.761290406
     0.493626527  0.258796817  0.761358504
     0.616019090  0.368638909  0.761305459
     0.520142874  0.539456551  0.851246259
     0.550803553  0.454079071  0.764657744
     0.578561783  0.584017780  0.791171692
     0.475511215  0.600782071  0.793106498
     0.335744873  0.395489766  0.851153881
     0.421289588  0.425629614  0.764626507
     0.291461699  0.453847363  0.790940849
     0.274377191  0.350858130  0.793074981
     0.479845338  0.210568061  0.851319187
     0.449319850  0.295895175  0.764704977
     0.421592733  0.165932701  0.791186238
     0.524633670  0.149255319  0.793264955
     0.664298445  0.354820836  0.851216279
     0.578919547  0.324340091  0.764606738
     0.708738386  0.296377906  0.791106238
     0.725664479  0.399401300  0.793106959

  ion indices of the primitive-cell ions
   primitive index   ion index
                 1           1
                 2           2
                 3           3
                 4           4
                 5           5
                 6           6
                 7           7
                 8           8
                 9           9
                10          10
                11          11
                12          12
                13          13
                14          14
                15          15
                16          16
                17          17
                18          18
                19          19
                20          20
                21          21
                22          22
                23          23
                24          24

----------------------------------------------------------------------------------------



 KPOINTS: pymatgen v2020.8.13 with grid density = 

Automatic generation of k-mesh.
 Grid dimensions read from file:
 generate k-points for:    1    1    1

 Generating k-lattice:

  Cartesian coordinates                     Fractional coordinates (reciprocal lattice)
     0.058506126  0.000000000  0.000000000     1.000000000  0.000000000  0.000000000
     0.000000000  0.058506126  0.000000000     0.000000000  1.000000000  0.000000000
     0.000000000  0.000000000  0.046708051     0.000000000  0.000000000  1.000000000

  Length of vectors
     0.058506126  0.058506126  0.046708051

  Shift w.r.t. Gamma in fractional coordinates (k-lattice)
     0.000000000  0.000000000  0.000000000

 
 Subroutine IBZKPT returns following result:
 ===========================================
 
 Found      1 irreducible k-points:
 
 Following reciprocal coordinates:
            Coordinates               Weight
  0.000000  0.000000  0.000000      1.000000
 
 Following cartesian coordinates:
            Coordinates               Weight
  0.000000  0.000000  0.000000      1.000000
 


--------------------------------------------------------------------------------------------------------




 Dimension of arrays:
   k-points           NKPTS =      1   k-points in BZ     NKDIM =      1   number of bands    NBANDS=     64
   number of dos      NEDOS =    301   number of ions     NIONS =     24
   non local maximal  LDIM  =      4   non local SUM 2l+1 LMDIM =      8
   total plane-waves  NPLWV = ******
   max r-space proj   IRMAX =   3166   max aug-charges    IRDMAX=   5636
   dimension x,y,z NGX =   128 NGY =  128 NGZ =  160
   dimension x,y,z NGXF=   256 NGYF=  256 NGZF=  320
   support grid    NGXF=   256 NGYF=  256 NGZF=  320
   ions per type =               4   4  16
   NGX,Y,Z   is equivalent  to a cutoff of  12.45, 12.45, 12.42 a.u.
   NGXF,Y,Z  is equivalent  to a cutoff of  24.90, 24.90, 24.85 a.u.

 SYSTEM =  MgO-rocksalt                            
 POSCAR =   C  O  H                                

--------------------------------------------------------------------------------------------------------


  energy-cutoff  :      520.00
  volume of cell :     6254.69
      direct lattice vectors                 reciprocal lattice vectors
    17.092227251  0.000000000  0.000000000     0.058506126  0.000000000  0.000000000
     0.000000000 17.092227251  0.000000000     0.000000000  0.058506126  0.000000000
     0.000000000  0.000000000 21.409585219     0.000000000  0.000000000  0.046708051

  length of vectors
    17.092227251 17.092227251 21.409585219     0.058506126  0.058506126  0.046708051



 k-points in units of 2pi/SCALE and weight: pymatgen v2020.8.13 with grid density = 
   0.00000000  0.00000000  0.00000000       1.000

 k-points in reciprocal lattice and weights: pymatgen v2020.8.13 with grid density = 
   0.00000000  0.00000000  0.00000000       1.000

 position of ions in fractional coordinates (direct lattice) 
   0.52152080  0.55782348  0.80206725
   0.31744590  0.39675689  0.80196981
   0.47857971  0.19219105  0.80213953
   0.68264365  0.35346066  0.80203430
   0.50649790  0.49119248  0.76129698
   0.38409461  0.38139684  0.76129041
   0.49362653  0.25879682  0.76135850
   0.61601909  0.36863891  0.76130546
   0.52014287  0.53945655  0.85124626
   0.55080355  0.45407907  0.76465774
   0.57856178  0.58401778  0.79117169
   0.47551122  0.60078207  0.79310650
   0.33574487  0.39548977  0.85115388
   0.42128959  0.42562961  0.76462651
   0.29146170  0.45384736  0.79094085
   0.27437719  0.35085813  0.79307498
   0.47984534  0.21056806  0.85131919
   0.44931985  0.29589518  0.76470498
   0.42159273  0.16593270  0.79118624
   0.52463367  0.14925532  0.79326495
   0.66429844  0.35482084  0.85121628
   0.57891955  0.32434009  0.76460674
   0.70873839  0.29637791  0.79110624
   0.72566448  0.39940130  0.79310696

 position of ions in cartesian coordinates  (Angst):
   8.91395209  9.53444573 17.17192718
   5.42585744  6.78145887 17.16984109
   8.17999319  3.28497318 17.17347468
  11.66790032  6.04142991 17.17122176
   8.65717723  8.39557343 16.29905247
   6.56503233  6.51892154 16.29891182
   8.43717677  4.42341400 16.30036977
  10.52913828  6.30086001 16.29923411
   8.89040020  9.22051395 18.22482932
   9.41445949  7.76122268 16.37100513
   9.88890947  9.98216462 16.93865775
   8.12754575 10.26870369 16.98008116
   5.73862766  6.75980096 18.22285155
   7.20077738  7.27495810 16.37033637
   4.98172960  7.75726227 16.93371551
   4.68971730  5.99694689 16.97940640
   8.20162556  3.59907714 18.22639069
   7.67987698  5.05750757 16.37201638
   7.20595880  2.83615944 16.93896918
   8.96715791  2.55110583 16.98347365
  11.35433998  6.06467836 18.22418746
   9.89502446  5.54369455 16.36991311
  12.11391755  5.06575851 16.93725641
  12.40322218  6.82665778 16.98009103



--------------------------------------------------------------------------------------------------------


--------------------------------------- Iteration      FINAL  ---------------------------------------


--------------------OUTCAR has been truncated-------------------------


--------------------OUTCAR has been truncated-------------------------


--------------------OUTCAR has been truncated-------------------------


--------------------OUTCAR has been truncated-------------------------


--------------------OUTCAR has been truncated-------------------------


--------------------OUTCAR has been truncated-------------------------


--------------------OUTCAR has been truncated-------------------------


--------------------OUTCAR has been truncated-------------------------


--------------------OUTCAR has been truncated-------------------------


--------------------OUTCAR has been truncated-------------------------


  DFT-D2 method for vdW energy calculation
  -------------------------------------------------------------------

  Parameters of vdW forcefield:
         C6(Jnm^6/mol)     R0(A)
   -----------------------------
   C        1.750          1.452
   O        0.700          1.342
   H        0.140          1.001

  vdW correction parametrized for the method pbe       

  IVDW =   1
  VDW_RADIUS =    50.000 A
  VDW_S6 =     0.750
  VDW_SR =     1.000
  VDW_D =    20.000
  LVDW_EWALD = F

  Number of pair interactions contributing to vdW energy:   25373
  Edisp (eV):   -0.32717
    FORVDW:  cpu time      0.0068: real time      0.0068

  FORCE on cell =-STRESS in cart. coord.  units (eV):
  Direction    XX          YY          ZZ          XY          YZ          ZX
  --------------------------------------------------------------------------------------
  Alpha Z     1.91387     1.91387     1.91387
  Ewald    2222.60081  2226.52767  -774.70660    -1.08018    -0.20873     0.41653
  Hartree  2822.05134  2825.70373   162.85898    -0.71221    -0.25467     0.27567
  E(xc)    -228.79360  -228.79117  -230.04104    -0.00140     0.00019     0.00052
  Local   -5599.03860 -5606.68015     6.81503     1.74771     0.48061    -0.65812
  n-local  -159.90307  -159.90118  -160.14127    -0.00720     0.00588    -0.00136
  augment    26.25170    26.25601    29.50845    -0.00399    -0.00202    -0.00190
  Kinetic   913.08882   913.12260   962.80492     0.07607    -0.02371    -0.02785
  Fock        0.00000     0.00000     0.00000     0.00000     0.00000     0.00000
  vdW        -0.21212    -0.21188     0.16598    -0.00030     0.00007    -0.00011
  -------------------------------------------------------------------------------------
  Total      -2.04084    -2.06050    -0.82168     0.01851    -0.00239     0.00337
  in kB      -0.52277    -0.52781    -0.21048     0.00474    -0.00061     0.00086
  external pressure =       -0.42 kB  Pullay stress =        0.00 kB


 VOLUME and BASIS-vectors are now :
 -----------------------------------------------------------------------------
  energy-cutoff  :      520.00
  volume of cell :     6254.69
      direct lattice vectors                 reciprocal lattice vectors
    17.092227251  0.000000000  0.000000000     0.058506126  0.000000000  0.000000000
     0.000000000 17.092227251  0.000000000     0.000000000  0.058506126  0.000000000
     0.000000000  0.000000000 21.409585219     0.000000000  0.000000000  0.046708051

  length of vectors
    17.092227251 17.092227251 21.409585219     0.058506126  0.058506126  0.046708051


 FORCES acting on ions:
    Electron-Ion                     Ewald-Force                    Non-Local-Force
 -----------------------------------------------------------------------------------------------
   -.287E+02 -.186E+03 -.877E+02   0.295E+02 0.190E+03 0.906E+02   -.902E+00 -.466E+01 -.334E+01
   0.186E+03 -.291E+02 -.875E+02   -.190E+03 0.300E+02 0.903E+02   0.466E+01 -.925E+00 -.333E+01
   0.287E+02 0.186E+03 -.878E+02   -.295E+02 -.190E+03 0.906E+02   0.907E+00 0.465E+01 -.334E+01
   -.186E+03 0.289E+02 -.877E+02   0.190E+03 -.297E+02 0.905E+02   -.466E+01 0.910E+00 -.334E+01
   0.389E+02 -.959E+02 0.133E+03   -.699E+02 0.934E+02 -.158E+03   0.309E+02 0.296E+01 0.260E+02
   0.958E+02 0.396E+02 0.133E+03   -.934E+02 -.706E+02 -.158E+03   -.291E+01 0.310E+02 0.259E+02
   -.390E+02 0.959E+02 0.133E+03   0.700E+02 -.934E+02 -.158E+03   -.309E+02 -.296E+01 0.260E+02
   -.958E+02 -.392E+02 0.133E+03   0.933E+02 0.703E+02 -.158E+03   0.296E+01 -.310E+02 0.259E+02
   -.260E+01 -.124E+02 -.765E+02   0.248E+01 0.109E+02 0.820E+02   0.130E+00 0.162E+01 -.537E+01
   -.609E+02 0.241E+02 0.608E+01   0.668E+02 -.294E+02 -.579E+01   -.589E+01 0.516E+01 -.343E+00
   -.593E+02 -.537E+02 0.434E+01   0.644E+02 0.561E+02 -.555E+01   -.501E+01 -.232E+01 0.123E+01
   0.414E+02 -.695E+02 0.187E+01   -.456E+02 0.734E+02 -.288E+01   0.414E+01 -.389E+01 0.103E+01
   0.124E+02 -.275E+01 -.765E+02   -.109E+02 0.264E+01 0.821E+02   -.162E+01 0.121E+00 -.537E+01
   -.243E+02 -.606E+02 0.614E+01   0.296E+02 0.666E+02 -.586E+01   -.517E+01 -.588E+01 -.340E+00
   0.535E+02 -.594E+02 0.454E+01   -.559E+02 0.645E+02 -.577E+01   0.231E+01 -.501E+01 0.124E+01
   0.696E+02 0.413E+02 0.181E+01   -.736E+02 -.455E+02 -.282E+01   0.391E+01 0.413E+01 0.103E+01
   0.272E+01 0.123E+02 -.765E+02   -.260E+01 -.108E+02 0.820E+02   -.120E+00 -.162E+01 -.537E+01
   0.609E+02 -.241E+02 0.607E+01   -.669E+02 0.294E+02 -.578E+01   0.589E+01 -.516E+01 -.341E+00
   0.593E+02 0.537E+02 0.441E+01   -.643E+02 -.561E+02 -.562E+01   0.500E+01 0.233E+01 0.123E+01
   -.415E+02 0.694E+02 0.174E+01   0.457E+02 -.734E+02 -.274E+01   -.414E+01 0.389E+01 0.102E+01
   -.124E+02 0.264E+01 -.765E+02   0.109E+02 -.251E+01 0.821E+02   0.162E+01 -.129E+00 -.537E+01
   0.242E+02 0.608E+02 0.624E+01   -.295E+02 -.668E+02 -.596E+01   0.516E+01 0.589E+01 -.334E+00
   -.536E+02 0.593E+02 0.439E+01   0.560E+02 -.644E+02 -.560E+01   -.231E+01 0.501E+01 0.123E+01
   -.696E+02 -.413E+02 0.184E+01   0.735E+02 0.456E+02 -.285E+01   -.390E+01 -.413E+01 0.103E+01
 -----------------------------------------------------------------------------------------------
   -.310E-01 0.243E-03 -.766E+02   0.711E-13 0.284E-13 0.000E+00   0.251E-01 -.276E-02 0.766E+02


 POSITION                                       TOTAL-FORCE (eV/Angst)
 -----------------------------------------------------------------------------------
      8.91395      9.53445     17.17193        -0.069328     -0.844907     -0.508842
      5.42586      6.78146     17.16984         0.848227     -0.071044     -0.510728
      8.17999      3.28497     17.17347         0.071937      0.840518     -0.506625
     11.66790      6.04143     17.17122        -0.845129      0.063209     -0.503157
      8.65718      8.39557     16.29905        -0.052492      0.440789      0.359773
      6.56503      6.51892     16.29891        -0.443074     -0.051956      0.362327
      8.43718      4.42341     16.30037         0.055437     -0.442586      0.359513
     10.52914      6.30086     16.29923         0.446967      0.059122      0.356402
      8.89040      9.22051     18.22483         0.002694      0.087725      0.167211
      9.41446      7.76122     16.37101         0.083489     -0.110910     -0.036488
      9.88891      9.98216     16.93866         0.101146      0.073842      0.004639
      8.12755     10.26870     16.98008        -0.110412      0.085038      0.013143
      5.73863      6.75980     18.22285        -0.085101      0.002499      0.175229
      7.20078      7.27496     16.37034         0.112629      0.088484     -0.038482
      4.98173      7.75726     16.93372        -0.075516      0.102990      0.002305
      4.68972      5.99695     16.97941        -0.093153     -0.116927      0.010940
      8.20163      3.59908     18.22639        -0.002468     -0.085018      0.166059
      7.67988      5.05751     16.37202        -0.086903      0.115969     -0.037345
      7.20596      2.83616     16.93897        -0.104416     -0.074226      0.003545
      8.96716      2.55111     16.98347         0.112797     -0.084914      0.011961
     11.35434      6.06468     18.22419         0.087439     -0.003208      0.169397
      9.89502      5.54369     16.36991        -0.118785     -0.092446     -0.034927
     12.11392      5.06576     16.93726         0.072632     -0.097899      0.003668
     12.40322      6.82666     16.98009         0.091383      0.115855      0.010482
 -----------------------------------------------------------------------------------
    total drift:                               -0.005898     -0.002512      0.018872


--------------------------------------------------------------------------------------------------------



  FREE ENERGIE OF THE ION-ELECTRON SYSTEM (eV)
  ---------------------------------------------------
  free  energy   TOTEN  =      -122.35633542 eV

  energy  without entropy=     -122.35633542  energy(sigma->0) =     -122.35633542



--------------------------------------------------------------------------------------------------------


    POTLOK:  cpu time      0.1724: real time      0.1724


--------------------------------------------------------------------------------------------------------


     LOOP+:  cpu time     19.3247: real time     19.8325
    4ORBIT:  cpu time      0.0000: real time      0.0000

 total amount of memory used by VASP MPI-rank0    58900. kBytes
=======================================================================

   base      :      30000. kBytes
   nonlr-proj:        463. kBytes
   fftplans  :       9519. kBytes
   grid      :      18407. kBytes
   one-center:          4. kBytes
   wavefun   :        507. kBytes

  
  
 General timing and accounting informations for this job:
 ========================================================
  
                  Total CPU time used (sec):       54.673
                            User time (sec):       51.839
                          System time (sec):        2.835
                         Elapsed time (sec):       59.267
  
                   Maximum memory used (kb):      158560.
                   Average memory used (kb):          N/A
  
                          Minor page faults:        21585
                          Major page faults:            0
                 Voluntary context switches:        12176
