 **********************************************************************
                          MRCC program system
 **********************************************************************
 
                              Written by
     Mihaly Kallay, Peter R. Nagy, David Mester, Laszlo Gyevi-Nagy,
        Jozsef Csoka, P. Bernat Szabo, Zoltan Rolik, Gyula Samu,
     Jozsef Csontos, Bence Hegely, Adam Ganyecz, Istvan Ladjanszki,
       Lorant Szegedy, Bence Ladoczki, Klara Petrov, Mate Farkas,
                    Pal D. Mezei, and Reka A. Horvath
 
        Department of Physical Chemistry and Materials Science
            Budapest University of Technology and Economics
                  Budapest P.O.Box 91, H-1521 Hungary
 
                              www.mrcc.hu
 
                      Release date: March 18, 2022

 ************************ 2023-02-05 13:12:27 *************************
 Executing minp...

 Reading input from MINP...
 
 Input file:
 
calc=FNO-CCSD(T)
verbosity=3
mem=220GB
unit=angs
scfiguess=small
scfalg=locfit1
ccmaxit=400
ccsdalg=dfdirect
ccsdthreads=4
ccsdmkl=thr
ptthreads=4
lnoepsv=1e-5
naf_cor=1e-2
basis=aug-cc-pVTZ
basis_sm=def2-SVP
dfbasis_scf=def2-QZVPP-RI-JK
dfbasis_cor=aug-cc-pVTZ-RI
unit=angs
geom=xyz
16

C    34.41670262    34.07107264    10.41543014
C    33.11117461    33.45680459    10.91530835
H    34.24160149    35.00442132     9.86225048
H    34.94674030    33.36940783     9.75379242
H    35.10002891    34.30603621    11.24227357
H    32.42643037    33.26105434    10.07939442
H    32.59136835    34.12756100    11.61262818
H    33.28915165    32.50678735    11.43686767
C    34.41670262    42.51205729    10.41543014
C    33.11117461    41.89778925    10.91530835
H    34.24160149    43.44540598     9.86225048
H    34.94674030    41.81039248     9.75379242
H    35.10002891    42.74702086    11.24227357
H    32.42643037    41.70203900    10.07939442
H    32.59136835    42.56854565    11.61262818
H    33.28915165    40.94777201    11.43686767

--------------------Output has been truncated-------------------------


--------------------Output has been truncated-------------------------


--------------------Output has been truncated-------------------------


--------------------Output has been truncated-------------------------


--------------------Output has been truncated-------------------------


--------------------Output has been truncated-------------------------


--------------------Output has been truncated-------------------------


--------------------Output has been truncated-------------------------


--------------------Output has been truncated-------------------------


--------------------Output has been truncated-------------------------


 
 Reference energy [au]:                      -158.519102246886
 DF-MP2 singlet pair energy [au]:              -0.600530527919
 DF-MP2 triplet pair energy [au]:              -0.150077480839
 DF-SCS-MP2 correlation energy [au]:           -0.770662460449
 DF-SCS-MP2 energy [au]:                     -159.289764707335
 DF-SOS-MP2 correlation energy [au]:           -0.780689686295
 DF-SOS-MP2 energy [au]:                     -159.299791933181
 DF-MP2 correlation energy [au]:               -0.750608008758
 DF-MP2 energy [au]:                         -159.269710255644

 Results in FNO basis:
 
 
 Reference energy [au]:                      -158.519102246886
 DF-MP2 singlet pair energy [au]:              -0.598185208370
 DF-MP2 triplet pair energy [au]:              -0.149863762159
 DF-SCS-MP2 correlation energy [au]:           -0.767776837431
 DF-SCS-MP2 energy [au]:                     -159.286879084316
 DF-SOS-MP2 correlation energy [au]:           -0.777640770881
 DF-SOS-MP2 energy [au]:                     -159.296743017767
 DF-MP2 correlation energy [au]:               -0.748048970529
 DF-MP2 energy [au]:                         -159.267151217415

 Results in NAF basis:
 
 
 Reference energy [au]:                      -158.519102246886
 DF-MP2 singlet pair energy [au]:              -0.598064874708
 DF-MP2 triplet pair energy [au]:              -0.149942165810
 DF-SCS-MP2 correlation energy [au]:           -0.767658571587
 DF-SCS-MP2 energy [au]:                     -159.286760818472
 DF-SOS-MP2 correlation energy [au]:           -0.777484337121
 DF-SOS-MP2 energy [au]:                     -159.296586584007
 DF-MP2 correlation energy [au]:               -0.748007040518
 DF-MP2 energy [au]:                         -159.267109287404

 ************************ 2023-02-05 13:13:15 *************************
 Executing ccsd...

 Allocation of 220.0 Gbytes of memory...

 Direct DF-CCSD(T) calculation
 
 Convergence criterion:  1.0E-06
 
 Number of occupied/virtual/auxiliary orbitals:    14   278   756
   3422.71 MB is the minimal memory requirement for (T)
    780.99 MB is the minimal memory requirement for CCSD
 
 Reference energy [au]:            -158.519102246886
 T1 contribution [au]:                0.000000000000
 Same spin MP2 energy [au]:          -0.149902846203
 Opposite spin MP2 energy [au]:      -0.598124700712
 MP2 correlation energy [au]:        -0.748027546915
 Total MP2 energy [au]:            -159.267129793801
 MP2 correction [au]:                -0.002580461843
 
 
 CPU time [min]:     0.908                   Wall time [min]:     0.132
 
 Starting CCSD iterations...
 
                     Residual norm          Energy
 Iteration  1        0.239612628805     -159.308983754953
 Iteration  2        0.059443065983     -159.328090098114
 Iteration  3        0.015857188815     -159.330027720667
 Iteration  4        0.003573604509     -159.330042476062
 Iteration  5        0.000752507726     -159.330052799197
 Iteration  6        0.000213356478     -159.330058468803
 Iteration  7        0.000050769456     -159.330058080272
 Iteration  8        0.000012982433     -159.330058649581
 Iteration  9        0.000002602674     -159.330058597379
 
 CCSD iteration has converged in  9 steps.
    23656.02 MB memory was utilized by CCSD
 
 T1 diagnostic:      7.817E-03            D1 diagnostic:      1.354E-02
 
 T1 contribution [au]:                                  0.000000000000
 PPL energy contribution [au]:                          0.205825157366
 Scaled PPL energy contribution [au]:                   0.206543868295

 OS-PPL energy contribution [au]:                       0.179924109392
 Scaled OS-PPL energy contribution [au]:                0.180667426941
 SS-PPL energy contribution [au]:                       0.025901047974
 Scaled SS-PPL energy contribution [au]:                0.025924853484

 Opposite spin CCSD energy [au]:                       -0.668582213529
 Same spin CCSD energy [au]:                           -0.142410736019
 CCSD correlation energy [au]:                         -0.810992949548
 CCSD correlation energy + MP2 correction [au]:        -0.813573411391
 CCSD correlation energy + MP2 + PPL corr. [au]:       -0.812854700462
 Total CCSD energy [au]:                             -159.330095196434
 Total CCSD energy + MP2 correction [au]:            -159.332675658277
 Total CCSD energy + MP2 + PPL corr. [au]:           -159.331956947348
 
 CPU time [min]:    53.728                   Wall time [min]:     1.793
 
 Calculation of (T) correction...
 
 
     4429.83 MB memory is utilized for (T)

 0%       25%       50%       75%       100%
 |---------|---------|---------|---------| 
 
 (T) correction [au]:                                    -0.027921740966
 (T*) correction [au]:                                   -0.028018062268
 (T+) correction [au]:                                   -0.028016870220
 CCSD(T) correlation energy [au]:                        -0.838914690514
 CCSD(T) correlation energy + MP2 correction [au]:       -0.841495152357
 CCSD(T+) correlation en. + MP2 + PPL corr. [au]:        -0.840871570682
 Total CCSD(T) energy [au]:                            -159.358016937399
 Total CCSD(T) energy + MP2 correction [au]:           -159.360597399242
 Total CCSD(T+) energy + MP2 + PPL corr. [au]:         -159.359973817568
 
 CPU time [min]:   111.731                   Wall time [min]:     3.495
 
 ************************ 2023-02-05 13:16:45 *************************
                      Normal termination of mrcc.
 **********************************************************************
