 **********************************************************************
                          MRCC program system
 **********************************************************************
 
                              Written by
     Mihaly Kallay, Peter R. Nagy, David Mester, Laszlo Gyevi-Nagy,
        Jozsef Csoka, P. Bernat Szabo, Zoltan Rolik, Gyula Samu,
     Jozsef Csontos, Bence Hegely, Adam Ganyecz, Istvan Ladjanszki,
       Lorant Szegedy, Bence Ladoczki, Klara Petrov, Mate Farkas,
                    Pal D. Mezei, and Reka A. Horvath
 
        Department of Physical Chemistry and Materials Science
            Budapest University of Technology and Economics
                  Budapest P.O.Box 91, H-1521 Hungary
 
                              www.mrcc.hu
 
                      Release date: March 18, 2022

 ************************ 2022-12-22 21:59:52 *************************
 Executing minp...

 Reading input from MINP...
 
 Input file:
 
calc=DF-CCSD(T)
scftype=rhf
verbosity=3
mem=220GB
symm=off
unit=angs
scfiguess=small
scfmaxit=1000
scfalg=locfit1


ccmaxit=400
ccsdalg=dfdirect
ccsdthreads=4
ccsdmkl=thr
ptthreads=4

charge=-12
core=14

basis=special
aug-cc-pVTZ
aug-cc-pVTZ
aug-cc-pVTZ
aug-cc-pVTZ
bse_CVTZ
aug-cc-pVTZ
aug-cc-pVTZ
aug-cc-pVTZ
aug-cc-pVTZ
aug-cc-pVTZ
bse_CVTZ
aug-cc-pVTZ
aug-cc-pVTZ
aug-cc-pVTZ
nothing
nothing
nothing
nothing
nothing
nothing
nothing
nothing
nothing
nothing
nothing
nothing
nothing
nothing
nothing
nothing
nothing
nothing
nothing
nothing
nothing
nothing
nothing
nothing
nothing
nothing
nothing
nothing
nothing
nothing
nothing
nothing
nothing
nothing

basis_sm=special
def2-SVP
def2-SVP
def2-SVP
def2-SVP
def2-SVP
def2-SVP
def2-SVP
def2-SVP
def2-SVP
def2-SVP
def2-SVP
def2-SVP
def2-SVP
def2-SVP
nothing
nothing
nothing
nothing
nothing
nothing
nothing
nothing
nothing
nothing
nothing
nothing
nothing
nothing
nothing
nothing
nothing
nothing
nothing
nothing
nothing
nothing
nothing
nothing
nothing
nothing
nothing
nothing
nothing
nothing
nothing
nothing
nothing
nothing

dfbasis_scf=special
def2-QZVPP-RI-JK
def2-QZVPP-RI-JK
def2-QZVPP-RI-JK
def2-QZVPP-RI-JK
def2-QZVPP-RI-JK
def2-QZVPP-RI-JK
def2-QZVPP-RI-JK
def2-QZVPP-RI-JK
def2-QZVPP-RI-JK
def2-QZVPP-RI-JK
def2-QZVPP-RI-JK
def2-QZVPP-RI-JK
def2-QZVPP-RI-JK
def2-QZVPP-RI-JK
nothing
nothing
nothing
nothing
nothing
nothing
nothing
nothing
nothing
nothing
nothing
nothing
nothing
nothing
nothing
nothing
nothing
nothing
nothing
nothing
nothing
nothing
nothing
nothing
nothing
nothing
nothing
nothing
nothing
nothing
nothing
nothing
nothing
nothing

dfbasis_cor=special
aug-cc-pVTZ-RI
aug-cc-pVTZ-RI
aug-cc-pVTZ-RI
aug-cc-pVTZ-RI
bse_CVTZ_mp2fit
aug-cc-pVTZ-RI
aug-cc-pVTZ-RI
aug-cc-pVTZ-RI
aug-cc-pVTZ-RI
aug-cc-pVTZ-RI
bse_CVTZ_mp2fit
aug-cc-pVTZ-RI
aug-cc-pVTZ-RI
aug-cc-pVTZ-RI
nothing
nothing
nothing
nothing
nothing
nothing
nothing
nothing
nothing
nothing
nothing
nothing
nothing
nothing
nothing
nothing
nothing
nothing
nothing
nothing
nothing
nothing
nothing
nothing
nothing
nothing
nothing
nothing
nothing
nothing
nothing
nothing
nothing
nothing

ecp=special
none
none
none
none
none
none
none
none
none
none
none
none
none
none
ECP-12
ECP-12
ECP-12
ECP-12
ECP-12
ECP-12
ECP-12
ECP-12
ECP-12
ECP-12
ECP-12
ECP-12
ECP-12
ECP-12
ECP-12
ECP-12
ECP-12
ECP-12
ECP-12
ECP-12
ECP-12
ECP-12
ECP-12
ECP-12
ECP-12
ECP-12
ECP-12
ECP-12
ECP-12
ECP-12
ECP-12
ECP-12
ECP-12
ECP-12

unit=angs
geom=xyz
48
N2 O2 Mg2 O8 ECP34
N     0.40650236773    0.40650324635    2.19318971406
N     1.75262562702    1.75262590322    2.19072651035
O     0.18283757344    0.18283994956    3.33197172865
O     1.97892907824    1.97893016918    3.32848152495
Mg    0.00000000000    0.00000000000   -0.00676672264
O    -2.10248244384    0.01668631229   -0.01474577407
O     0.01668627297   -2.10248229978   -0.01474572177
O     0.02054188635    0.02054198437   -2.14933684354
O     0.00321845804    2.14387700438    0.00000000000
O     2.14387696187    0.00321862452   -0.00000019877
Mg    2.14720169601    2.14720178681   -0.00912889998
O     2.12598938745    2.12598952190   -2.14991480714
O     2.13019163308    4.24941744989   -0.01605723604
O     4.24941735741    2.13019178644   -0.01605724959
Mg   -2.09482346987   -2.09482329181   -0.04813952247
Mg   -2.10340120808    2.12999911276   -0.05216931460
Mg    2.12999902754   -2.10340100097   -0.05216936576
Mg   -2.08987411719    0.01722791956   -2.15217857533
Mg    0.01722771469   -2.08987411448   -2.15217858037
Mg    0.02222870432    2.12412274759   -2.15714060693
Mg    2.12412260256    0.02222874454   -2.15714051380
Mg   -4.19091356179    0.01684310357   -0.05209836121
Mg    0.01684298259   -4.19091339336   -0.05209836134
Mg    0.01684298259    4.25007366246   -0.05209836134
Mg    4.25007349403    0.01684310357   -0.05209836121
Mg    0.01785020171    0.01785031950   -4.27956570434
Mg   -2.09216783155   -4.20219183337   -2.15514804372
Mg   -4.20219192612   -2.09216757369   -2.15514802660
Mg   -4.20434639217    2.12931912969   -2.15266377686
Mg    2.12931909051   -4.20434618313   -2.15266379440
Mg   -2.09216783155    4.23879522245   -2.15514804372
Mg    4.23879512970   -2.09216757369   -2.15514802660
Mg   -2.09239656224   -2.09239644445   -4.27956570434
Mg    2.12931909051    4.23664087268   -2.15266379440
Mg    4.23664066365    2.12931912969   -2.15266377686
Mg   -2.09239656224    2.12809708346   -4.27956570434
Mg    2.12809696567   -2.09239644445   -4.27956570434
Mg    2.12809696567    2.12809708346   -4.27956570434
Mg    4.24147927179    4.24147943588   -0.04866250867
Mg    0.01785020171    4.23834384741   -4.27956570434
Mg    4.23834372962    0.01785031950   -4.27956570434
Mg    2.12999902754    6.33758605485   -0.05216936576
Mg    6.33758584774    2.12999911276   -0.05216931460
Mg    0.01722771469    6.35111294134   -2.15217858037
Mg    6.35111293863    0.01722791956   -2.15217857533
Mg    4.23834372962    4.23834384741   -4.27956570434
Mg    4.23879512970    6.34881948213   -2.15514802660
Mg    6.34881922426    4.23879522245   -2.15514804372



ghost=serialno


qmmm=Amber
pointcharges
10181
     -2.09482346987   -2.09482329181   -0.04813952247    2.00000000000
     -2.10340120808    2.12999911276   -0.05216931460    2.00000000000
      2.12999902754   -2.10340100097   -0.05216936576    2.00000000000
     -2.08987411719    0.01722791956   -2.15217857533    2.00000000000
--------------------Output has been truncated-------------------------


--------------------Output has been truncated-------------------------


--------------------Output has been truncated-------------------------


--------------------Output has been truncated-------------------------


--------------------Output has been truncated-------------------------


--------------------Output has been truncated-------------------------


--------------------Output has been truncated-------------------------


--------------------Output has been truncated-------------------------


--------------------Output has been truncated-------------------------


--------------------Output has been truncated-------------------------


 ************************ 2022-12-22 22:04:56 *************************
 Executing ccsd...

 Allocation of 220.0 Gbytes of memory...

 Direct DF-CCSD(T) calculation
 
 Convergence criterion:  1.0E-06
 
 Number of occupied/virtual/auxiliary orbitals:    51   605  1624
  42274.08 MB is the minimal memory requirement for (T)
  15464.03 MB is the minimal memory requirement for CCSD
 
 Reference energy [au]:          -10064.594806936693
 T1 contribution [au]:                0.000000000000
 Same spin MP2 energy [au]:          -0.972006983318
 Opposite spin MP2 energy [au]:      -2.679260181014
 MP2 correlation energy [au]:        -3.651267164332
 Total MP2 energy [au]:          -10068.246074101025
 
 
 CPU time [min]:     7.991                   Wall time [min]:     1.930
 
 Starting CCSD iterations...
 
                     Residual norm          Energy
 Iteration  1        0.593382755700   -10068.097888179826
 Iteration  2        0.189441377573   -10068.184181288001
 Iteration  3        0.062518547021   -10068.210648099759
 Iteration  4        0.026307110634   -10068.211986481234
 Iteration  5        0.009935804248   -10068.210722567374
 Iteration  6        0.005126086376   -10068.210464304424
 Iteration  7        0.002457285051   -10068.210736743882
 Iteration  8        0.001266807288   -10068.210681771609
 Iteration  9        0.000729414775   -10068.210595056889
 Iteration 10        0.000380522722   -10068.210608796879
 Iteration 11        0.000169750115   -10068.210618117579
 Iteration 12        0.000083965295   -10068.210618160005
 Iteration 13        0.000036942137   -10068.210618784535
 Iteration 14        0.000016638579   -10068.210619920532
 Iteration 15        0.000008560380   -10068.210619879652
 Iteration 16        0.000003667605   -10068.210619543852
 
 CCSD iteration has converged in 16 steps.
   225276.39 MB memory was utilized by CCSD
 
 T1 diagnostic:      1.526E-02            D1 diagnostic:      7.079E-02
 
 T1 contribution [au]:                                  0.000000000000
 Opposite spin CCSD energy [au]:                       -2.773168319586
 Same spin CCSD energy [au]:                           -0.842644287574
 CCSD correlation energy [au]:                         -3.615812607159
 Total CCSD energy [au]:                           -10068.210619543852
 
 CPU time [min]:  7835.274                   Wall time [min]:   274.826
 
 Calculation of (T) correction...
 
 
   127036.56 MB memory is utilized for (T)

 0%       25%       50%       75%       100%
 |---------|---------|---------|---------| 
 
 (T) correction [au]:                                    -0.154270291516
 CCSD(T) correlation energy [au]:                        -3.770082898674
 Total CCSD(T) energy [au]:                          -10068.364889835368
 
 CPU time [min]: 42438.180                   Wall time [min]:  1253.475
 
 ************************ 2022-12-23 18:58:27 *************************
                      Normal termination of mrcc.
 **********************************************************************
