 **********************************************************************
                          MRCC program system
 **********************************************************************
 
                              Written by
     Mihaly Kallay, Peter R. Nagy, David Mester, Laszlo Gyevi-Nagy,
        Jozsef Csoka, P. Bernat Szabo, Zoltan Rolik, Gyula Samu,
     Jozsef Csontos, Bence Hegely, Adam Ganyecz, Istvan Ladjanszki,
       Lorant Szegedy, Bence Ladoczki, Klara Petrov, Mate Farkas,
                    Pal D. Mezei, and Reka A. Horvath
 
        Department of Physical Chemistry and Materials Science
            Budapest University of Technology and Economics
                  Budapest P.O.Box 91, H-1521 Hungary
 
                              www.mrcc.hu
 
                      Release date: March 18, 2022

 ************************ 2023-02-07 16:11:40 *************************
 Executing minp...

 Reading input from MINP...
 
 Input file:
 
calc=DF-CCSD(T)
scftype=rhf
verbosity=3
mem=240GB
symm=off
unit=angs
scfiguess=small
scfmaxit=1000
scfalg=locfit1


ccmaxit=400
ccsdalg=dfdirect
ccsdthreads=4
ccsdmkl=thr
ptthreads=4

charge=-12
core=14

basis=special
aug-cc-pVDZ
aug-cc-pVDZ
aug-cc-pVDZ
aug-cc-pVDZ
bse_CVDZ
aug-cc-pVDZ
aug-cc-pVDZ
aug-cc-pVDZ
aug-cc-pVDZ
aug-cc-pVDZ
bse_CVDZ
aug-cc-pVDZ
aug-cc-pVDZ
aug-cc-pVDZ
nothing
nothing
nothing
nothing
nothing
nothing
nothing
nothing
nothing
nothing
nothing
nothing
nothing
nothing
nothing
nothing
nothing
nothing
nothing
nothing
nothing
nothing
nothing
nothing
nothing
nothing
nothing
nothing
nothing
nothing
nothing
nothing
nothing
nothing

basis_sm=special
def2-SVP
def2-SVP
def2-SVP
def2-SVP
def2-SVP
def2-SVP
def2-SVP
def2-SVP
def2-SVP
def2-SVP
def2-SVP
def2-SVP
def2-SVP
def2-SVP
nothing
nothing
nothing
nothing
nothing
nothing
nothing
nothing
nothing
nothing
nothing
nothing
nothing
nothing
nothing
nothing
nothing
nothing
nothing
nothing
nothing
nothing
nothing
nothing
nothing
nothing
nothing
nothing
nothing
nothing
nothing
nothing
nothing
nothing

dfbasis_scf=special
def2-QZVPP-RI-JK
def2-QZVPP-RI-JK
def2-QZVPP-RI-JK
def2-QZVPP-RI-JK
def2-QZVPP-RI-JK
def2-QZVPP-RI-JK
def2-QZVPP-RI-JK
def2-QZVPP-RI-JK
def2-QZVPP-RI-JK
def2-QZVPP-RI-JK
def2-QZVPP-RI-JK
def2-QZVPP-RI-JK
def2-QZVPP-RI-JK
def2-QZVPP-RI-JK
nothing
nothing
nothing
nothing
nothing
nothing
nothing
nothing
nothing
nothing
nothing
nothing
nothing
nothing
nothing
nothing
nothing
nothing
nothing
nothing
nothing
nothing
nothing
nothing
nothing
nothing
nothing
nothing
nothing
nothing
nothing
nothing
nothing
nothing

dfbasis_cor=special
aug-cc-pVDZ-RI
aug-cc-pVDZ-RI
aug-cc-pVDZ-RI
aug-cc-pVDZ-RI
bse_CVDZ_mp2fit
aug-cc-pVDZ-RI
aug-cc-pVDZ-RI
aug-cc-pVDZ-RI
aug-cc-pVDZ-RI
aug-cc-pVDZ-RI
bse_CVDZ_mp2fit
aug-cc-pVDZ-RI
aug-cc-pVDZ-RI
aug-cc-pVDZ-RI
nothing
nothing
nothing
nothing
nothing
nothing
nothing
nothing
nothing
nothing
nothing
nothing
nothing
nothing
nothing
nothing
nothing
nothing
nothing
nothing
nothing
nothing
nothing
nothing
nothing
nothing
nothing
nothing
nothing
nothing
nothing
nothing
nothing
nothing

ecp=special
none
none
none
none
none
none
none
none
none
none
none
none
none
none
ECP-12
ECP-12
ECP-12
ECP-12
ECP-12
ECP-12
ECP-12
ECP-12
ECP-12
ECP-12
ECP-12
ECP-12
ECP-12
ECP-12
ECP-12
ECP-12
ECP-12
ECP-12
ECP-12
ECP-12
ECP-12
ECP-12
ECP-12
ECP-12
ECP-12
ECP-12
ECP-12
ECP-12
ECP-12
ECP-12
ECP-12
ECP-12
ECP-12
ECP-12

unit=angs
geom=xyz
48
N2 O2 Mg2 O8 ECP34
N    -1.70405963805   -1.70405712827    2.26414168348
N    -0.39353036420   -0.39352673915    2.24350696282
O    -1.92362708458   -1.92361426085    3.38577361047
O    -0.15453424971   -0.15452091980    3.35706853724
Mg    0.00000000000    0.00000000000   -0.01531913526
O    -0.01397522745    2.09468953471   -0.01585324347
O     2.09468905905   -0.01397437085   -0.01585277191
O    -0.01778966524   -0.01778880947   -2.13403421792
O    -0.00133952625   -2.13087240787   -0.00000161082
O    -2.13087267524   -0.00133947280    0.00000000000
Mg   -2.13088520181   -2.13088545772   -0.01012263154
O    -2.11558402862   -2.11558331309   -2.13320886404
O    -2.11840960322   -4.22621272714   -0.01381232594
O    -4.22621367587   -2.11840916182   -0.01381306365
Mg    2.08862803039    2.08862832399   -0.05635228977
Mg   -0.01632367088    2.08255818024   -2.13773428997
Mg    2.08255773525   -0.01632264178   -2.13773460265
Mg   -2.11995931933    2.09477773529   -0.06038491507
Mg    2.09477679477   -2.11995905039   -0.06038679353
Mg   -0.01974882929   -2.11400355054   -2.13567957697
Mg   -2.11400472602   -0.01974853677   -2.13567899809
Mg   -0.01245252393    4.17780922110   -0.06026969975
Mg    4.17780778867   -0.01245136032   -0.06026780324
Mg   -0.01245252393   -4.22705516525   -0.06026969975
Mg   -4.22705659767   -0.01245136032   -0.06026780324
Mg   -0.01690903118   -0.01690815737   -4.24997684878
Mg    2.08514640547    4.18646419546   -2.14162420318
Mg    4.18646370808    2.08514704855   -2.14162286511
Mg   -2.11723961381    4.18970011946   -2.13702861337
Mg    4.18969929600   -2.11723885565   -2.13702814002
Mg    2.08430706541    2.08430793922   -4.24997684878
Mg   -4.21840067827    2.08514704855   -2.14162286511
Mg    2.08514640547   -4.21840019089   -2.14162420318
Mg   -2.11723961381   -4.21516426688   -2.13702861337
Mg   -4.21516509034   -2.11723885565   -2.13702814002
Mg   -2.11812512776    2.08430793922   -4.24997684878
Mg    2.08430706541   -2.11812425396   -4.24997684878
Mg   -2.11812512776   -2.11812425396   -4.24997684878
Mg   -4.22076569256   -4.22076486062   -0.05560468565
Mg   -0.01690903118   -4.21934035054   -4.24997684878
Mg   -4.21934122435   -0.01690815737   -4.24997684878
Mg   -2.11995931933   -6.31008665105   -0.06038491507
Mg   -6.31008759158   -2.11995905039   -0.06038679353
Mg   -0.01632367088   -6.32230620611   -2.13773428997
Mg   -6.32230665109   -0.01632264178   -2.13773460265
Mg   -4.21934122435   -4.21934035054   -4.24997684878
Mg   -4.21840067827   -6.31971733780   -2.14162286511
Mg   -6.31971798088   -4.21840019089   -2.14162420318



ghost=serialno


qmmm=Amber
pointcharges
10273
      2.08862803039    2.08862832399   -0.05635228977    2.00000000000
     -0.01632367088    2.08255818024   -2.13773428997    2.00000000000
      2.08255773525   -0.01632264178   -2.13773460265    2.00000000000
     -2.11995931933    2.09477773529   -0.06038491507    2.00000000000
--------------------Output has been truncated-------------------------


--------------------Output has been truncated-------------------------


--------------------Output has been truncated-------------------------


--------------------Output has been truncated-------------------------


--------------------Output has been truncated-------------------------


--------------------Output has been truncated-------------------------


--------------------Output has been truncated-------------------------


--------------------Output has been truncated-------------------------


--------------------Output has been truncated-------------------------


--------------------Output has been truncated-------------------------


 ************************ 2023-02-07 16:13:27 *************************
 Executing ccsd...

 Allocation of 240.0 Gbytes of memory...

 Direct DF-CCSD(T) calculation
 
 Convergence criterion:  1.0E-06
 
 Number of occupied/virtual/auxiliary orbitals:    51   265  1098
   4939.43 MB is the minimal memory requirement for (T)
   2847.95 MB is the minimal memory requirement for CCSD
 
 Reference energy [au]:          -10420.143982398127
 T1 contribution [au]:                0.000000000000
 Same spin MP2 energy [au]:          -0.777548519361
 Opposite spin MP2 energy [au]:      -2.026622052127
 MP2 correlation energy [au]:        -2.804170571488
 Total MP2 energy [au]:          -10422.948152969615
 
 
 CPU time [min]:     1.930                   Wall time [min]:     0.373
 
 Starting CCSD iterations...
 
                     Residual norm          Energy
 Iteration  1        0.427213325498   -10422.865656415899
 Iteration  2        0.157913494607   -10422.933899562791
 Iteration  3        0.058698930173   -10422.956241901515
 Iteration  4        0.020402433057   -10422.957874393946
 Iteration  5        0.008625905549   -10422.956997483219
 Iteration  6        0.004157286573   -10422.956758606286
 Iteration  7        0.001974827428   -10422.956946197424
 Iteration  8        0.001008359066   -10422.956927951924
 Iteration  9        0.000555395705   -10422.956855832679
 Iteration 10        0.000301061810   -10422.956860744382
 Iteration 11        0.000134704051   -10422.956869691783
 Iteration 12        0.000059927983   -10422.956871061437
 Iteration 13        0.000026568846   -10422.956871394774
 Iteration 14        0.000011754335   -10422.956872014958
 Iteration 15        0.000005633126   -10422.956871958297
 
 CCSD iteration has converged in 15 steps.
    21601.26 MB memory was utilized by CCSD
 
 T1 diagnostic:      1.566E-02            D1 diagnostic:      6.919E-02
 
 T1 contribution [au]:                                  0.000000000000
 Opposite spin CCSD energy [au]:                       -2.144391506561
 Same spin CCSD energy [au]:                           -0.668498053608
 CCSD correlation energy [au]:                         -2.812889560169
 Total CCSD energy [au]:                           -10422.956871958297
 
 CPU time [min]:   467.414                   Wall time [min]:    18.868
 
 Calculation of (T) correction...
 
 
    13551.03 MB memory is utilized for (T)

 0%       25%       50%       75%       100%
 |---------|---------|---------|---------| 
 
 (T) correction [au]:                                    -0.094343347028
 CCSD(T) correlation energy [au]:                        -2.907232907197
 Total CCSD(T) energy [au]:                          -10423.051215305324
 
 CPU time [min]:  2497.892                   Wall time [min]:    75.765
 
 ************************ 2023-02-07 17:29:14 *************************
                      Normal termination of mrcc.
 **********************************************************************
