 **********************************************************************
                          MRCC program system
 **********************************************************************
 
                              Written by
     Mihaly Kallay, Peter R. Nagy, David Mester, Laszlo Gyevi-Nagy,
        Jozsef Csoka, P. Bernat Szabo, Zoltan Rolik, Gyula Samu,
     Jozsef Csontos, Bence Hegely, Adam Ganyecz, Istvan Ladjanszki,
       Lorant Szegedy, Bence Ladoczki, Klara Petrov, Mate Farkas,
                    Pal D. Mezei, and Reka A. Horvath
 
        Department of Physical Chemistry and Materials Science
            Budapest University of Technology and Economics
                  Budapest P.O.Box 91, H-1521 Hungary
 
                              www.mrcc.hu
 
                      Release date: March 18, 2022

 ************************ 2023-02-04 11:40:40 *************************
 Executing minp...

 Reading input from MINP...
 
 Input file:
 
calc=FNO-CCSD(T)
verbosity=3
mem=220GB
unit=angs
scfiguess=small
scfalg=locfit1
ccmaxit=400
ccsdalg=dfdirect
ccsdthreads=4
ccsdmkl=thr
ptthreads=4
lnoepsv=1e-5
naf_cor=1e-2
basis=aug-cc-pVQZ
basis_sm=def2-SVP
dfbasis_scf=def2-QZVPP-RI-JK
dfbasis_cor=aug-cc-pVQZ-RI
unit=angs
geom=xyz
10

C    29.54344629    29.54344629    16.97505516
H    29.54344670    30.44187631    17.60392580
H    29.54344662    28.64496649    17.60393442
H    30.44658454    29.54342777    16.34911135
H    28.64030918    29.54342779    16.34911130
C    29.54344629    12.66147698    16.97505516
H    29.54344670    13.55990700    17.60392580
H    29.54344662    11.76299718    17.60393442
H    30.44658454    12.66145846    16.34911135
H    28.64030918    12.66145848    16.34911130

--------------------Output has been truncated-------------------------


--------------------Output has been truncated-------------------------


--------------------Output has been truncated-------------------------


--------------------Output has been truncated-------------------------


--------------------Output has been truncated-------------------------


--------------------Output has been truncated-------------------------


--------------------Output has been truncated-------------------------


--------------------Output has been truncated-------------------------


--------------------Output has been truncated-------------------------


--------------------Output has been truncated-------------------------


 
 Reference energy [au]:                       -80.431228344725
 DF-MP2 singlet pair energy [au]:              -0.347505773442
 DF-MP2 triplet pair energy [au]:              -0.074996779932
 DF-SCS-MP2 correlation energy [au]:           -0.442005854775
 DF-SCS-MP2 energy [au]:                      -80.873234199499
 DF-SOS-MP2 correlation energy [au]:           -0.451757505475
 DF-SOS-MP2 energy [au]:                      -80.882985850199
 DF-MP2 correlation energy [au]:               -0.422502553374
 DF-MP2 energy [au]:                          -80.853730898098

 Results in FNO basis:
 
 
 Reference energy [au]:                       -80.431228344725
 DF-MP2 singlet pair energy [au]:              -0.341236436428
 DF-MP2 triplet pair energy [au]:              -0.074714171358
 DF-SCS-MP2 correlation energy [au]:           -0.434388447499
 DF-SCS-MP2 energy [au]:                      -80.865616792224
 DF-SOS-MP2 correlation energy [au]:           -0.443607367356
 DF-SOS-MP2 energy [au]:                      -80.874835712081
 DF-MP2 correlation energy [au]:               -0.415950607786
 DF-MP2 energy [au]:                          -80.847178952510

 Results in NAF basis:
 
 
 Reference energy [au]:                       -80.431228344725
 DF-MP2 singlet pair energy [au]:              -0.341202867391
 DF-MP2 triplet pair energy [au]:              -0.074726474503
 DF-SCS-MP2 correlation energy [au]:           -0.434352265703
 DF-SCS-MP2 energy [au]:                      -80.865580610427
 DF-SOS-MP2 correlation energy [au]:           -0.443563727608
 DF-SOS-MP2 energy [au]:                      -80.874792072332
 DF-MP2 correlation energy [au]:               -0.415929341894
 DF-MP2 energy [au]:                          -80.847157686618

 ************************ 2023-02-04 11:41:16 *************************
 Executing ccsd...

 Allocation of 220.0 Gbytes of memory...

 Direct DF-CCSD(T) calculation
 
 Convergence criterion:  1.0E-06
 
 Number of occupied/virtual/auxiliary orbitals:     8   202   639
   1311.83 MB is the minimal memory requirement for (T)
    292.76 MB is the minimal memory requirement for CCSD
 
 Reference energy [au]:             -80.431228344725
 T1 contribution [au]:                0.000000000000
 Same spin MP2 energy [au]:          -0.074720315176
 Opposite spin MP2 energy [au]:      -0.341219636308
 MP2 correlation energy [au]:        -0.415939951484
 Total MP2 energy [au]:             -80.847168296208
 MP2 correction [au]:                -0.006562601890
 
 
 CPU time [min]:     0.494                   Wall time [min]:     0.061
 
 Starting CCSD iterations...
 
                     Residual norm          Energy
 Iteration  1        0.196095394629      -80.873058907753
 Iteration  2        0.050021423763      -80.884105755983
 Iteration  3        0.013817808087      -80.885271606459
 Iteration  4        0.002857706294      -80.885280607188
 Iteration  5        0.000530130192      -80.885293620825
 Iteration  6        0.000119912198      -80.885293373721
 Iteration  7        0.000028597369      -80.885294753617
 Iteration  8        0.000005286960      -80.885294867526
 Iteration  9        0.000001125590      -80.885294843573
 
 CCSD iteration has converged in  9 steps.
     6687.47 MB memory was utilized by CCSD
 
 T1 diagnostic:      7.996E-03            D1 diagnostic:      1.292E-02
 
 T1 contribution [au]:                                  0.000000000000
 PPL energy contribution [au]:                          0.121205037955
 Scaled PPL energy contribution [au]:                   0.123118477474

 OS-PPL energy contribution [au]:                       0.107548240596
 Scaled OS-PPL energy contribution [au]:                0.109533859534
 SS-PPL energy contribution [au]:                       0.013656797359
 Scaled SS-PPL energy contribution [au]:                0.013705569205

 Opposite spin CCSD energy [au]:                       -0.382008153707
 Same spin CCSD energy [au]:                           -0.072071408410
 CCSD correlation energy [au]:                         -0.454079562117
 CCSD correlation energy + MP2 correction [au]:        -0.460642164007
 CCSD correlation energy + MP2 + PPL corr. [au]:       -0.458728724488
 Total CCSD energy [au]:                              -80.885307906842
 Total CCSD energy + MP2 correction [au]:             -80.891870508732
 Total CCSD energy + MP2 + PPL corr. [au]:            -80.889957069213
 
 CPU time [min]:    13.189                   Wall time [min]:     0.423
 
 Calculation of (T) correction...
 
 
     1275.11 MB memory is utilized for (T)

 0%       25%       50%       75%       100%
 |---------|---------|---------|---------| 
 
 (T) correction [au]:                                    -0.013883443402
 (T*) correction [au]:                                   -0.014102493079
 (T+) correction [au]:                                   -0.014101666786
 CCSD(T) correlation energy [au]:                        -0.467963005519
 CCSD(T) correlation energy + MP2 correction [au]:       -0.474525607409
 CCSD(T+) correlation en. + MP2 + PPL corr. [au]:        -0.472830391274
 Total CCSD(T) energy [au]:                             -80.899191350244
 Total CCSD(T) energy + MP2 correction [au]:            -80.905753952134
 Total CCSD(T+) energy + MP2 + PPL corr. [au]:          -80.904058735998
 
 CPU time [min]:    17.156                   Wall time [min]:     0.571
 
 ************************ 2023-02-04 11:41:50 *************************
                      Normal termination of mrcc.
 **********************************************************************
