 **********************************************************************
                          MRCC program system
 **********************************************************************
 
                              Written by
     Mihaly Kallay, Peter R. Nagy, David Mester, Laszlo Gyevi-Nagy,
        Jozsef Csoka, P. Bernat Szabo, Zoltan Rolik, Gyula Samu,
     Jozsef Csontos, Bence Hegely, Adam Ganyecz, Istvan Ladjanszki,
       Lorant Szegedy, Bence Ladoczki, Klara Petrov, Mate Farkas,
                    Pal D. Mezei, and Reka A. Horvath
 
        Department of Physical Chemistry and Materials Science
            Budapest University of Technology and Economics
                  Budapest P.O.Box 91, H-1521 Hungary
 
                              www.mrcc.hu
 
                      Release date: March 18, 2022

 ************************ 2023-02-05 13:21:08 *************************
 Executing minp...

 Reading input from MINP...
 
 Input file:
 
calc=FNO-CCSD(T)
verbosity=3
mem=220GB
unit=angs
scfiguess=small
scfalg=locfit1
ccmaxit=400
ccsdalg=dfdirect
ccsdthreads=4
ccsdmkl=thr
ptthreads=4
lnoepsv=1e-5
naf_cor=1e-2
basis=aug-cc-pVTZ
basis_sm=def2-SVP
dfbasis_scf=def2-QZVPP-RI-JK
dfbasis_cor=aug-cc-pVTZ-RI
unit=angs
geom=xyz
16

C    34.41670262    34.07107264    10.41543014
C    33.11117461    33.45680459    10.91530835
H    34.24160149    35.00442132     9.86225048
H    34.94674030    33.36940783     9.75379242
H    35.10002891    34.30603621    11.24227357
H    32.42643037    33.26105434    10.07939442
H    32.59136835    34.12756100    11.61262818
H    33.28915165    32.50678735    11.43686767
C    45.74245317    23.52004258    10.40841099
C    47.04217115    22.90620846    10.92356869
H    45.21721276    22.81583689     9.74571409
H    45.92448905    24.45098191     9.85291346
H    45.05142584    23.76067685    11.22702485
H    47.73601157    22.70956722    10.09551480
H    46.85793094    21.95668890    11.44396498
H    47.55429059    23.57775033    11.62587494

--------------------Output has been truncated-------------------------


--------------------Output has been truncated-------------------------


--------------------Output has been truncated-------------------------


--------------------Output has been truncated-------------------------


--------------------Output has been truncated-------------------------


--------------------Output has been truncated-------------------------


--------------------Output has been truncated-------------------------


--------------------Output has been truncated-------------------------


--------------------Output has been truncated-------------------------


--------------------Output has been truncated-------------------------


 
 Reference energy [au]:                      -158.519089284099
 DF-MP2 singlet pair energy [au]:              -0.600509808832
 DF-MP2 triplet pair energy [au]:              -0.150063593118
 DF-SCS-MP2 correlation energy [au]:           -0.770632968304
 DF-SCS-MP2 energy [au]:                     -159.289722252403
 DF-SOS-MP2 correlation energy [au]:           -0.780662751482
 DF-SOS-MP2 energy [au]:                     -159.299752035580
 DF-MP2 correlation energy [au]:               -0.750573401949
 DF-MP2 energy [au]:                         -159.269662686048

 Results in FNO basis:
 
 
 Reference energy [au]:                      -158.519089284099
 DF-MP2 singlet pair energy [au]:              -0.598169369897
 DF-MP2 triplet pair energy [au]:              -0.149851041182
 DF-SCS-MP2 correlation energy [au]:           -0.767753590937
 DF-SCS-MP2 energy [au]:                     -159.286842875035
 DF-SOS-MP2 correlation energy [au]:           -0.777620180866
 DF-SOS-MP2 energy [au]:                     -159.296709464964
 DF-MP2 correlation energy [au]:               -0.748020411079
 DF-MP2 energy [au]:                         -159.267109695177

 Results in NAF basis:
 
 
 Reference energy [au]:                      -158.519089284099
 DF-MP2 singlet pair energy [au]:              -0.598048124444
 DF-MP2 triplet pair energy [au]:              -0.149929347551
 DF-SCS-MP2 correlation energy [au]:           -0.767634198517
 DF-SCS-MP2 energy [au]:                     -159.286723482615
 DF-SOS-MP2 correlation energy [au]:           -0.777462561777
 DF-SOS-MP2 energy [au]:                     -159.296551845876
 DF-MP2 correlation energy [au]:               -0.747977471995
 DF-MP2 energy [au]:                         -159.267066756094

 ************************ 2023-02-05 13:21:51 *************************
 Executing ccsd...

 Allocation of 220.0 Gbytes of memory...

 Direct DF-CCSD(T) calculation
 
 Convergence criterion:  1.0E-06
 
 Number of occupied/virtual/auxiliary orbitals:    14   278   756
   3422.71 MB is the minimal memory requirement for (T)
    780.99 MB is the minimal memory requirement for CCSD
 
 Reference energy [au]:            -158.519089284099
 T1 contribution [au]:                0.000000000000
 Same spin MP2 energy [au]:          -0.149890076115
 Opposite spin MP2 energy [au]:      -0.598108405788
 MP2 correlation energy [au]:        -0.747998481903
 Total MP2 energy [au]:            -159.267087766001
 MP2 correction [au]:                -0.002574920047
 
 
 CPU time [min]:     0.913                   Wall time [min]:     0.136
 
 Starting CCSD iterations...
 
                     Residual norm          Energy
 Iteration  1        0.241423485347     -159.308944698210
 Iteration  2        0.060038614674     -159.328074730418
 Iteration  3        0.015975974156     -159.329986895748
 Iteration  4        0.003604226261     -159.330003531598
 Iteration  5        0.000758967081     -159.330013947549
 Iteration  6        0.000215375663     -159.330020102232
 Iteration  7        0.000051277174     -159.330019671489
 Iteration  8        0.000013080835     -159.330020254760
 Iteration  9        0.000002622727     -159.330020202710
 
 CCSD iteration has converged in  9 steps.
    23656.02 MB memory was utilized by CCSD
 
 T1 diagnostic:      7.817E-03            D1 diagnostic:      1.354E-02
 
 T1 contribution [au]:                                  0.000000000000
 PPL energy contribution [au]:                          0.205823745429
 Scaled PPL energy contribution [au]:                   0.206541075051

 OS-PPL energy contribution [au]:                       0.179923279915
 Scaled OS-PPL energy contribution [au]:                0.180665405977
 SS-PPL energy contribution [au]:                       0.025900465514
 Scaled SS-PPL energy contribution [au]:                0.025924085720

 Opposite spin CCSD energy [au]:                       -0.668569410502
 Same spin CCSD energy [au]:                           -0.142398648935
 CCSD correlation energy [au]:                         -0.810968059437
 CCSD correlation energy + MP2 correction [au]:        -0.813542979484
 CCSD correlation energy + MP2 + PPL corr. [au]:       -0.812825649862
 Total CCSD energy [au]:                             -159.330057343535
 Total CCSD energy + MP2 correction [au]:            -159.332632263582
 Total CCSD energy + MP2 + PPL corr. [au]:           -159.331914933961
 
 CPU time [min]:    53.452                   Wall time [min]:     1.822
 
 Calculation of (T) correction...
 
 
     4429.83 MB memory is utilized for (T)

 0%       25%       50%       75%       100%
 |---------|---------|---------|---------| 
 
 (T) correction [au]:                                    -0.027917981284
 (T*) correction [au]:                                   -0.028014086519
 (T+) correction [au]:                                   -0.028012914724
 CCSD(T) correlation energy [au]:                        -0.838886040720
 CCSD(T) correlation energy + MP2 correction [au]:       -0.841460960767
 CCSD(T+) correlation en. + MP2 + PPL corr. [au]:        -0.840838564587
 Total CCSD(T) energy [au]:                            -159.357975324819
 Total CCSD(T) energy + MP2 correction [au]:           -159.360550244866
 Total CCSD(T+) energy + MP2 + PPL corr. [au]:         -159.359927848685
 
 CPU time [min]:   109.882                   Wall time [min]:     3.480
 
 ************************ 2023-02-05 13:25:20 *************************
                      Normal termination of mrcc.
 **********************************************************************
