 vasp.6.3.0 20Jan22 (build Dec 25 2023 18:06:01) complex                         
 executed on        HPECrayEX_GCC date 2024.01.26  08:00:11
 running 1024 mpi-ranks, with    1 threads/rank
 distrk:  each k-point on 1024 cores,    1 groups
 distr:  one band on NCORE=   2 cores,  512 groups


--------------------------------------------------------------------------------------------------------


 INCAR:
   SYSTEM = TiO2
   ISMEAR = 0
   SIGMA = 0.05
   EDIFF = 1E-5
   ALGO = ALL
   ISTART = 0
   IBRION = -1
   NSW = 0
   ISYM = 0
   ISIF = 2
   EDIFFG = -0.01
   DIPOL = 0.5 0.5 0.5
   IDIPOL = 3
   LDIPOL = .TRUE.
   LHFCALC = .TRUE.
   HFSCREEN = 0.2
   GGA = PE
   IVDW = 13
   VDW_S8 = 1.19528249
   VDW_A1 = 0.38663183
   VDW_A2 = 5.19133469
   ENCUT = 520
   PREC = Normal
   PRECFOCK = Fast
   LASPH = .TRUE.
   LREAL = .FALSE.
   ISPIN = 1
   NKREDX = 3
   NKREDY = 3
   NELM = 200
   NELMIN = 8
   NCORE = 2
   KPAR = 1
   LWAVE = .FALSE.
   LCHARG = .FALSE.

 POTCAR:    PAW_PBE Ti 08Apr2002                  
 POTCAR:    PAW_PBE O 08Apr2002                   
 POTCAR:    PAW_PBE Ti 08Apr2002                  
   SHA256 =  f8e8f1d080d9e9b45e792f1068744b07aba8441d1e7ce11486a5d4c0f5a1479e Ti/POTCAR             
   COPYR  = (c) Copyright 08Apr2002 Georg Kresse                                                    
   COPYR  = This file is part of the software VASP. Any use, copying, and all other rights are regul
   COPYR  = If you do not have a valid VASP license, you may not use, copy or distribute this file. 
   VRHFIN =Ti: d3 s1                                                                                
   LEXCH  = PE                                                                                      
   EATOM  =    94.7928 eV,    6.9671 Ry                                                             
                                                                                                    
   TITEL  = PAW_PBE Ti 08Apr2002                                                                    
   LULTRA =        F    use ultrasoft PP ?                                                          
   IUNSCR =        1    unscreen: 0-lin 1-nonlin 2-no                                               
   RPACOR =    2.200    partial core radius                                                         
   POMASS =   47.880; ZVAL   =    4.000    mass and valenz                                          
   RCORE  =    2.800    outmost cutoff radius                                                       
   RWIGS  =    2.500; RWIGS  =    1.323    wigner-seitz radius (au A)                               
   ENMAX  =  178.330; ENMIN  =  133.747 eV                                                          
   RCLOC  =    2.215    cutoff for local pot                                                        
   LCOR   =        T    correct aug charges                                                         
   LPAW   =        T    paw PP                                                                      
   EAUG   =  328.883                                                                                
   DEXC   =    0.000                                                                                
   RMAX   =    2.868    core radius for proj-oper                                                   
   RAUG   =    1.300    factor for augmentation sphere                                              
   RDEP   =    2.885    radius for radial grids                                                     
   RDEPT  =    2.320    core radius for aug-charge                                                  
                                                                                                    
   Atomic configuration                                                                             
    9 entries                                                                                       
     n  l   j            E        occ.                                                              
     1  0  0.50     -4865.3608   2.0000                                                             
     2  0  0.50      -533.1367   2.0000                                                             
     2  1  1.50      -440.5031   6.0000                                                             
     3  0  0.50       -59.3186   2.0000                                                             
     3  1  1.50       -35.7012   6.0000                                                             
     3  2  2.50        -1.9157   3.0000                                                             
     4  0  0.50        -3.7291   1.0000                                                             
     4  1  1.50        -4.0817   0.0000                                                             
     4  3  2.50        -1.3606   0.0000                                                             
   Description                                                                                      
     l       E           TYP  RCUT    TYP  RCUT                                                     
     2     -1.9156924     23  2.800                                                                 
     2     -0.4062961     23  2.800                                                                 
     0     -3.7290832     23  2.800                                                                 
     0     20.4087390     23  2.800                                                                 
     1     -5.4423304     23  2.800                                                                 
  local pseudopotential read in
  partial core-charges read in
  partial kinetic energy density read in
  atomic valenz-charges read in
  non local Contribution for L=           2  read in
    real space projection operators read in
  non local Contribution for L=           2  read in
    real space projection operators read in
  non local Contribution for L=           0  read in
    real space projection operators read in
  non local Contribution for L=           0  read in
    real space projection operators read in
  non local Contribution for L=           1  read in
    real space projection operators read in
    PAW grid and wavefunctions read in

   number of l-projection  operators is LMAX  =           5
   number of lm-projection operators is LMMAX =          15

 POTCAR:    PAW_PBE O 08Apr2002                   
   SHA256 =  818f92134a0a090dccd8ba1447fa70422a3b330e708bb4f08108d8ae51209ddf O/POTCAR              
   COPYR  = (c) Copyright 08Apr2002 Georg Kresse                                                    
   COPYR  = This file is part of the software VASP. Any use, copying, and all other rights are regul
   COPYR  = If you do not have a valid VASP license, you may not use, copy or distribute this file. 
   VRHFIN =O: s2p4                                                                                  
   LEXCH  = PE                                                                                      
   EATOM  =   432.3788 eV,   31.7789 Ry                                                             
                                                                                                    
   TITEL  = PAW_PBE O 08Apr2002                                                                     
   LULTRA =        F    use ultrasoft PP ?                                                          
   IUNSCR =        1    unscreen: 0-lin 1-nonlin 2-no                                               
   RPACOR =    1.200    partial core radius                                                         
   POMASS =   16.000; ZVAL   =    6.000    mass and valenz                                          
   RCORE  =    1.520    outmost cutoff radius                                                       
   RWIGS  =    1.550; RWIGS  =    0.820    wigner-seitz radius (au A)                               
   ENMAX  =  400.000; ENMIN  =  300.000 eV                                                          
   ICORE  =        2    local potential                                                             
   LCOR   =        T    correct aug charges                                                         
   LPAW   =        T    paw PP                                                                      
   EAUG   =  605.392                                                                                
   DEXC   =    0.000                                                                                
   RMAX   =    1.553    core radius for proj-oper                                                   
   RAUG   =    1.300    factor for augmentation sphere                                              
   RDEP   =    1.550    radius for radial grids                                                     
   RDEPT  =    1.329    core radius for aug-charge                                                  
                                                                                                    
   Atomic configuration                                                                             
    4 entries                                                                                       
     n  l   j            E        occ.                                                              
     1  0  0.50      -514.6923   2.0000                                                             
     2  0  0.50       -23.9615   2.0000                                                             
     2  1  0.50        -9.0305   4.0000                                                             
     3  2  1.50        -9.5241   0.0000                                                             
   Description                                                                                      
     l       E           TYP  RCUT    TYP  RCUT                                                     
     0    -23.9615318     23  1.200                                                                 
     0     -9.5240782     23  1.200                                                                 
     1     -9.0304911     23  1.520                                                                 
     1      8.1634956     23  1.520                                                                 
     2     -9.5240782      7  1.500                                                                 
  local pseudopotential read in
  partial core-charges read in
  partial kinetic energy density read in
  kinetic energy density of atom read in
  atomic valenz-charges read in
  non local Contribution for L=           0  read in
    real space projection operators read in
  non local Contribution for L=           0  read in
    real space projection operators read in
  non local Contribution for L=           1  read in
    real space projection operators read in
  non local Contribution for L=           1  read in
    real space projection operators read in
    PAW grid and wavefunctions read in

   number of l-projection  operators is LMAX  =           4
   number of lm-projection operators is LMMAX =           8

 -----------------------------------------------------------------------------
|                                                                             |
|               ----> ADVICE to this user running VASP <----                  |
|                                                                             |
|     You have a (more or less) 'large supercell' and for larger cells it     |
|     might be more efficient to use real-space projection operators.         |
|     Therefore, try LREAL= Auto in the INCAR file.                           |
|     Mind: For very accurate calculation, you might also keep the            |
|     reciprocal projection scheme (i.e. LREAL=.FALSE.).                      |
|                                                                             |
 -----------------------------------------------------------------------------

  PAW_PBE Ti 08Apr2002                  :
 energy of atom  1       EATOM=  -94.7928
 kinetic energy error for atom=    0.0002 (will be added to EATOM!!)
  PAW_PBE O 08Apr2002                   :
 energy of atom  2       EATOM= -432.3788
 kinetic energy error for atom=    0.0208 (will be added to EATOM!!)


 POSCAR: Ti  O
  positions in direct lattice
  No initial velocities read in
 -----------------------------------------------------------------------------
|                                                                             |
|           W    W    AA    RRRRR   N    N  II  N    N   GGGG   !!!           |
|           W    W   A  A   R    R  NN   N  II  NN   N  G    G  !!!           |
|           W    W  A    A  R    R  N N  N  II  N N  N  G       !!!           |
|           W WW W  AAAAAA  RRRRR   N  N N  II  N  N N  G  GGG   !            |
|           WW  WW  A    A  R   R   N   NN  II  N   NN  G    G                |
|           W    W  A    A  R    R  N    N  II  N    N   GGGG   !!!           |
|                                                                             |
|     Specifying the vdW parameters                                           |
|     VDW_S8 = 1.195                                                          |
|     VDW_A1 = 0.387                                                          |
|     VDW_A2 = 5.191                                                          |
|     in the INCAR file will overwrite the defaults for hse06. Please         |
|     make sure that is what you intended.                                    |
|                                                                             |
 -----------------------------------------------------------------------------

 exchange correlation table for  LEXCH =        8
   RHO(1)=    0.500       N(1)  =     2000
   RHO(2)=  100.500       N(2)  =     4000



--------------------------------------------------------------------------------------------------------


 ion  position               nearest neighbor table
   1  0.809  0.833  0.271-  51 1.93  85 1.93  53 1.93  52 1.97  50 1.97  18 3.04   4 3.04   2 3.04

   2  0.593  0.667  0.306-  49 1.93 116 1.93  54 1.93  52 1.93  55 1.97  53 1.97  33 3.04   3 3.04
                             1 3.04   7 3.06
   3  0.309  0.667  0.271-  55 1.93 121 1.93  57 1.93  56 1.97  49 1.97  36 3.04   2 3.04   4 3.04

   4  0.093  0.833  0.306-  50 1.93  88 1.93  58 1.93  56 1.93  51 1.97  57 1.97  19 3.04   1 3.04
                             3 3.04   5 3.06
   5  0.946  0.833  0.413-  59 1.92  93 1.93  61 1.93  51 1.97  60 1.97  58 1.97   8 2.99   6 3.03
                            22 3.03   4 3.06
   6  0.728  0.666  0.445-  54 1.89 124 1.93  60 1.93  62 1.94  63 1.97  61 1.98   7 3.00   5 3.03
                            37 3.04  11 3.08
   7  0.445  0.666  0.413-  63 1.92 129 1.92  65 1.93  55 1.96  64 1.97  54 1.98   6 3.00   8 3.04
                            40 3.04   2 3.06
   8  0.227  0.833  0.446-  58 1.90  96 1.93  64 1.93  66 1.96  59 1.96  65 1.98   5 2.99  23 3.04
                             7 3.04   9 3.08
   9  0.087  0.834  0.556-  67 1.92 101 1.92  69 1.93  68 1.96  66 1.98  59 1.99  12 2.94  10 3.03
                            26 3.03   8 3.08
  10  0.867  0.666  0.584-  62 1.87 132 1.92  68 1.93  71 1.94  69 1.98  70 1.98  11 2.97   9 3.03
                            41 3.04  15 3.14
  11  0.586  0.666  0.555- 137 1.92  71 1.92  73 1.93  63 1.96  72 1.96  62 1.99  10 2.97  12 3.04
                            44 3.04   6 3.08
  12  0.366  0.833  0.586-  66 1.87 104 1.93  72 1.93  67 1.94  74 1.98  73 1.99   9 2.94  27 3.04
                            11 3.04
  13  0.232  0.833  0.701-  75 1.85  77 1.92 109 1.93  76 1.99  74 2.06  67 2.07  16 2.85  30 3.06
                            14 3.07
  14  0.002  0.666  0.723-  70 1.79  78 1.84 140 1.96  76 1.97  77 2.02  15 2.86  13 3.07  45 3.08

  15  0.730  0.666  0.697-  78 1.88 144 1.92  80 1.94  79 1.98  71 2.01  70 2.05  14 2.86  16 3.06
                            48 3.07  10 3.14
  16  0.505  0.834  0.724-  74 1.79  75 1.83  79 1.96 111 1.96  80 2.02  13 2.85  31 3.05  15 3.06

  17  0.809  0.167  0.271-  83 1.93  85 1.93 117 1.93  84 1.97  82 1.97  18 3.04  20 3.04  34 3.04

  18  0.593  0.000  0.306-  81 1.93  52 1.93  84 1.93  86 1.93  85 1.97  87 1.97   1 3.04  17 3.04
                            19 3.04  23 3.06
  19  0.309  0.000  0.271-  87 1.93  57 1.93  89 1.93  88 1.97  81 1.97  20 3.04   4 3.04  18 3.04

  20  0.093  0.167  0.306-  82 1.93  88 1.93  90 1.93 120 1.93  83 1.97  89 1.97  19 3.04  17 3.04
                            35 3.04  21 3.06
  21  0.946  0.167  0.413-  91 1.92  93 1.93 125 1.93  83 1.97  92 1.97  90 1.97  24 2.99  38 3.03
                            22 3.03  20 3.06
  22  0.727  1.000  0.446-  86 1.89  60 1.93  92 1.93  94 1.95  95 1.97  93 1.98  23 3.00   5 3.03
                            21 3.03  27 3.09
  23  0.446  0.000  0.413-  95 1.92  97 1.93  65 1.93  87 1.96  96 1.97  86 1.98  22 3.00   8 3.04
                            24 3.04  18 3.06
  24  0.227  0.167  0.446-  90 1.90  96 1.93 128 1.93  98 1.96  91 1.96  97 1.98  21 2.99  23 3.04
                            39 3.04  25 3.08
  25  0.087  0.166  0.556-  99 1.92 101 1.92 133 1.93 100 1.96  98 1.98  91 1.99  28 2.94  42 3.03
                            26 3.03  24 3.08
  26  0.866  1.000  0.585-  94 1.87  68 1.93 100 1.93 103 1.94 102 1.98 101 1.99  27 2.95   9 3.03
                            25 3.03  31 3.17
  27  0.586  0.000  0.555- 103 1.92 105 1.93  73 1.93 104 1.97  95 1.98  94 1.98  26 2.95  12 3.04
                            28 3.04  22 3.09
  28  0.366  0.167  0.586-  98 1.87 104 1.93 136 1.93  99 1.94 106 1.98 105 1.99  25 2.94  27 3.04
                            43 3.04
  29  0.232  0.167  0.701- 107 1.85 141 1.92 109 1.93 108 1.99 106 2.06  99 2.07  32 2.85  30 3.06
                            46 3.07
  30  0.004  1.000  0.723- 102 1.79 110 1.83  76 1.97 108 1.97 109 2.01  31 2.84  13 3.06  29 3.06

  31  0.733  0.000  0.700- 110 1.86  80 1.92 112 1.92 111 1.99 102 2.05 103 2.07  30 2.84  16 3.05
                            32 3.05  26 3.17
  32  0.505  0.166  0.724- 106 1.79 107 1.83 143 1.96 111 1.96 112 2.02  29 2.85  31 3.05  47 3.06

  33  0.809  0.500  0.271- 115 1.93  53 1.93 117 1.93 116 1.97 114 1.97  34 3.04   2 3.04  36 3.04

  34  0.593  0.333  0.306- 113 1.93 116 1.93 118 1.93  84 1.93 117 1.97 119 1.97  33 3.04  35 3.04
                            17 3.04  39 3.06
  35  0.309  0.333  0.271- 119 1.93 121 1.93  89 1.93 120 1.97 113 1.97  36 3.04  34 3.04  20 3.04

  36  0.093  0.500  0.306- 114 1.93  56 1.93 120 1.93 122 1.93 121 1.97 115 1.97   3 3.04  35 3.04
                            33 3.04  37 3.05
  37  0.947  0.500  0.413- 123 1.92 125 1.93  61 1.93 122 1.96 115 1.96 124 1.97  40 2.99   6 3.04
                            38 3.04  36 3.05
  38  0.728  0.334  0.445- 118 1.89 124 1.93  92 1.93 126 1.94 127 1.97 125 1.98  39 3.00  21 3.03
                            37 3.04  43 3.08
  39  0.445  0.334  0.413- 127 1.92 129 1.92  97 1.93 119 1.96 128 1.97 118 1.98  38 3.00  24 3.04
                            40 3.04  34 3.06
  40  0.227  0.500  0.447- 122 1.92 128 1.93  64 1.93 123 1.95 130 1.96 129 1.99  37 2.99   7 3.04
                            39 3.04  41 3.05
  41  0.090  0.500  0.556- 131 1.92 133 1.93  69 1.93 130 1.96 132 1.98 123 1.99  44 2.96  10 3.04
                            42 3.04  40 3.05
  42  0.867  0.334  0.584- 126 1.87 132 1.92 100 1.93 135 1.94 133 1.98 134 1.98  43 2.97  25 3.03
                            41 3.04  47 3.14
  43  0.586  0.334  0.555- 137 1.92 135 1.92 105 1.93 127 1.96 136 1.96 126 1.99  42 2.97  28 3.04
                            44 3.04  38 3.08
  44  0.367  0.500  0.589- 130 1.91 136 1.93  72 1.93 131 1.93 138 1.97 137 2.00  41 2.96  11 3.04
                            43 3.04  45 3.12
  45  0.235  0.500  0.702- 139 1.85  77 1.93 141 1.93 138 2.01 140 2.02 131 2.07  48 2.87  46 3.08
                            14 3.08  44 3.12
  46  0.002  0.334  0.723- 134 1.79 142 1.84 140 1.96 108 1.97 141 2.02  47 2.86  29 3.07  45 3.08

  47  0.730  0.334  0.697- 142 1.88 144 1.92 112 1.94 143 1.98 135 2.01 134 2.05  46 2.86  32 3.06
                            48 3.07  42 3.14
  48  0.507  0.500  0.730- 139 1.82 138 1.87  79 1.97 143 1.97 144 2.06  45 2.87  47 3.07  15 3.07

  49  0.489  0.667  0.242-   2 1.93   3 1.97
  50  0.989  0.833  0.242-   4 1.93   1 1.97
  51  0.914  0.833  0.335-   1 1.93   5 1.97   4 1.97
  52  0.630  0.833  0.300-  18 1.93   2 1.93   1 1.97
  53  0.772  0.667  0.277-  33 1.93   1 1.93   2 1.97
  54  0.624  0.667  0.383-   6 1.89   2 1.93   7 1.98
  55  0.414  0.667  0.335-   3 1.93   7 1.96   2 1.97
  56  0.130  0.667  0.300-  36 1.93   4 1.93   3 1.97
  57  0.272  0.833  0.277-  19 1.93   3 1.93   4 1.97
  58  0.124  0.833  0.383-   8 1.90   4 1.93   5 1.97
  59  0.051  0.833  0.477-   5 1.92   8 1.96   9 1.99
  60  0.766  0.833  0.441-  22 1.93   6 1.93   5 1.97
  61  0.909  0.667  0.418-   5 1.93  37 1.93   6 1.98
  62  0.763  0.666  0.522-  10 1.87   6 1.94  11 1.99
  63  0.551  0.666  0.477-   7 1.92  11 1.96   6 1.97
  64  0.266  0.667  0.441-  40 1.93   8 1.93   7 1.97
  65  0.408  0.833  0.418-   7 1.93  23 1.93   8 1.98
  66  0.263  0.833  0.523-  12 1.87   8 1.96   9 1.98
  67  0.194  0.833  0.619-   9 1.92  12 1.94  13 2.07
  68  0.905  0.833  0.581-  26 1.93  10 1.93   9 1.96
  69  0.051  0.667  0.560-  41 1.93   9 1.93  10 1.98
  70  0.911  0.668  0.662-  14 1.79  10 1.98  15 2.05
  71  0.695  0.669  0.618-  11 1.92  10 1.94  15 2.01
  72  0.406  0.667  0.583-  44 1.93  12 1.93  11 1.96
  73  0.549  0.833  0.559-  27 1.93  11 1.93  12 1.99
  74  0.410  0.834  0.663-  16 1.79  12 1.98  13 2.06
  75  0.348  0.833  0.759-  16 1.83  13 1.85
  76  0.052  0.833  0.732-  30 1.97  14 1.97  13 1.99
  77  0.193  0.666  0.703-  13 1.92  45 1.93  14 2.02
  78  0.842  0.661  0.757-  14 1.84  15 1.88
  79  0.555  0.668  0.732-  16 1.96  48 1.97  15 1.98
  80  0.694  0.834  0.700-  31 1.92  15 1.94  16 2.02
  81  0.489  0.000  0.242-  18 1.93  19 1.97
  82  0.989  0.167  0.242-  20 1.93  17 1.97
  83  0.914  0.167  0.335-  17 1.93  21 1.97  20 1.97
  84  0.630  0.167  0.300-  18 1.93  34 1.93  17 1.97
  85  0.772  0.000  0.277-   1 1.93  17 1.93  18 1.97
  86  0.624  0.000  0.383-  22 1.89  18 1.93  23 1.98
  87  0.414  0.000  0.335-  19 1.93  23 1.96  18 1.97
  88  0.130  0.000  0.300-   4 1.93  20 1.93  19 1.97
  89  0.272  0.167  0.277-  19 1.93  35 1.93  20 1.97
  90  0.124  0.167  0.383-  24 1.90  20 1.93  21 1.97
  91  0.051  0.167  0.477-  21 1.92  24 1.96  25 1.99
  92  0.766  0.167  0.441-  22 1.93  38 1.93  21 1.97
  93  0.909  1.000  0.418-   5 1.93  21 1.93  22 1.98
  94  0.763  0.000  0.523-  26 1.87  22 1.95  27 1.98
  95  0.551  0.000  0.477-  23 1.92  22 1.97  27 1.98
  96  0.266  1.000  0.441-   8 1.93  24 1.93  23 1.97
  97  0.408  0.167  0.418-  39 1.93  23 1.93  24 1.98
  98  0.263  0.167  0.523-  28 1.87  24 1.96  25 1.98
  99  0.194  0.167  0.619-  25 1.92  28 1.94  29 2.07
 100  0.905  0.167  0.581-  26 1.93  42 1.93  25 1.96
 101  0.051  1.000  0.560-  25 1.92   9 1.92  26 1.99
 102  0.911  1.000  0.662-  30 1.79  26 1.98  31 2.05
 103  0.695  0.000  0.618-  27 1.92  26 1.94  31 2.07
 104  0.405  0.000  0.582-  12 1.93  28 1.93  27 1.97
 105  0.549  0.167  0.559-  27 1.93  43 1.93  28 1.99
 106  0.410  0.166  0.663-  32 1.79  28 1.98  29 2.06
 107  0.348  0.167  0.759-  32 1.83  29 1.85
 108  0.052  0.167  0.732-  30 1.97  46 1.97  29 1.99
 109  0.194  0.000  0.702-  29 1.93  13 1.93  30 2.01
 110  0.847  1.000  0.758-  30 1.83  31 1.86
 111  0.555  0.000  0.733-  32 1.96  16 1.96  31 1.99
 112  0.694  0.166  0.700-  31 1.92  47 1.94  32 2.02
 113  0.489  0.333  0.242-  34 1.93  35 1.97
 114  0.989  0.500  0.242-  36 1.93  33 1.97
 115  0.914  0.500  0.335-  33 1.93  37 1.96  36 1.97
 116  0.630  0.500  0.300-   2 1.93  34 1.93  33 1.97
 117  0.772  0.333  0.277-  33 1.93  17 1.93  34 1.97
 118  0.624  0.333  0.383-  38 1.89  34 1.93  39 1.98
 119  0.414  0.333  0.335-  35 1.93  39 1.96  34 1.97
 120  0.130  0.333  0.300-  36 1.93  20 1.93  35 1.97
 121  0.272  0.500  0.277-   3 1.93  35 1.93  36 1.97
 122  0.124  0.500  0.383-  40 1.92  36 1.93  37 1.96
 123  0.052  0.500  0.477-  37 1.92  40 1.95  41 1.99
 124  0.766  0.500  0.440-  38 1.93   6 1.93  37 1.97
 125  0.909  0.333  0.418-  21 1.93  37 1.93  38 1.98
 126  0.763  0.334  0.522-  42 1.87  38 1.94  43 1.99
 127  0.551  0.334  0.477-  39 1.92  43 1.96  38 1.97
 128  0.266  0.333  0.441-  40 1.93  24 1.93  39 1.97
 129  0.409  0.500  0.418-  39 1.92   7 1.92  40 1.99
 130  0.265  0.500  0.524-  44 1.91  41 1.96  40 1.96
 131  0.195  0.500  0.620-  41 1.92  44 1.93  45 2.07
 132  0.906  0.500  0.581-  10 1.92  42 1.92  41 1.98
 133  0.051  0.333  0.560-  41 1.93  25 1.93  42 1.98
 134  0.911  0.332  0.662-  46 1.79  42 1.98  47 2.05
 135  0.695  0.331  0.618-  43 1.92  42 1.94  47 2.01
 136  0.406  0.333  0.583-  44 1.93  28 1.93  43 1.96
 137  0.550  0.500  0.560-  43 1.92  11 1.92  44 2.00
 138  0.412  0.500  0.666-  48 1.87  44 1.97  45 2.01
 139  0.345  0.500  0.761-  48 1.82  45 1.85
 140  0.052  0.500  0.732-  46 1.96  14 1.96  45 2.02
 141  0.193  0.334  0.703-  29 1.92  45 1.93  46 2.02
 142  0.842  0.339  0.757-  46 1.84  47 1.88
 143  0.555  0.332  0.732-  32 1.96  48 1.97  47 1.98
 144  0.691  0.500  0.696-  47 1.92  15 1.92  48 2.06


IMPORTANT INFORMATION: All symmetrisations will be switched off!
NOSYMM: (Re-)initialisation of all symmetry stuff for point group C_1.


----------------------------------------------------------------------------------------

                                     Primitive cell                                     

  volume of cell :    2875.9226

  direct lattice vectors                    reciprocal lattice vectors
    10.237069764  0.000000000  0.000000000     0.097684203 -0.000000000  0.000000000
     0.000000000 11.308341211  0.000000000     0.000000000  0.088430299  0.000000000
     0.000000000  0.000000000 24.842918924     0.000000000  0.000000000  0.040252919

  length of vectors
    10.237069764 11.308341211 24.842918924     0.097684203  0.088430299  0.040252919

  position of ions in fractional coordinates (direct lattice)
     0.809356535  0.833333333  0.270760136
     0.593252186  0.666666667  0.306027808
     0.309356535  0.666666667  0.270760136
     0.093252186  0.833333333  0.306027808
     0.946172536  0.833423591  0.413280637
     0.728066116  0.666359980  0.445472570
     0.445461893  0.666490868  0.413113906
     0.227143951  0.833296505  0.445984892
     0.087256570  0.833523127  0.555849052
     0.866752970  0.666348524  0.584172103
     0.585513558  0.666488674  0.554737765
     0.365524335  0.833353572  0.585616904
     0.232185265  0.832737636  0.701240381
     0.001904487  0.665766977  0.723483237
     0.730121001  0.665742277  0.697415907
     0.504795805  0.834152336  0.723633846
     0.809356535  0.166666667  0.270760136
     0.593252186  0.000000000  0.306027808
     0.309356535  0.000000000  0.270760136
     0.093252186  0.166666667  0.306027808
     0.946172556  0.166576374  0.413280640
     0.727472880  0.999999980  0.445653650
     0.445636556  0.000000007  0.413243580
     0.227143958  0.166703501  0.445984925
     0.087256639  0.166476852  0.555849060
     0.865580736  0.999999976  0.584767352
     0.586080636  0.000000046  0.555327590
     0.365524338  0.166646481  0.585616997
     0.232185346  0.167262311  0.701240464
     0.004067093  0.999999967  0.723450616
     0.732985614  0.000000006  0.699964474
     0.504795696  0.165847698  0.723634051
     0.809356535  0.500000000  0.270760136
     0.593252186  0.333333333  0.306027808
     0.309356535  0.333333333  0.270760136
     0.093252186  0.500000000  0.306027808
     0.947333943  0.499999935  0.413110349
     0.728066046  0.333639938  0.445472601
     0.445461943  0.333509109  0.413113914
     0.227463027  0.499999976  0.447046557
     0.089744447  0.499999918  0.556099363
     0.866752863  0.333651369  0.584172244
     0.585513701  0.333511298  0.554737867
     0.367338856  0.499999991  0.588791889
     0.235211778  0.500000039  0.701773255
     0.001904740  0.334233083  0.723483328
     0.730121113  0.334257902  0.697416165
     0.506772886  0.500000120  0.730259093
     0.488542111  0.666666667  0.241517513
     0.988542111  0.833333333  0.241517513
     0.914066610  0.833333333  0.335270431
     0.630170959  0.833333333  0.300002759
     0.772437762  0.666666667  0.276785185
     0.624124715  0.666666667  0.382588199
     0.414066610  0.666666667  0.335270431
     0.130170959  0.666666667  0.300002759
     0.272437762  0.833333333  0.276785185
     0.124124715  0.833333333  0.382588199
     0.051411504  0.833487979  0.477182841
     0.766094014  0.833282582  0.440759624
     0.909455836  0.666609677  0.418221178
     0.763071100  0.665868029  0.522393419
     0.551013566  0.666264923  0.477025156
     0.265897871  0.666539875  0.441323093
     0.408498355  0.833235716  0.418125385
     0.263345489  0.833101110  0.523253222
     0.194162891  0.833065152  0.619214009
     0.905392568  0.833417605  0.580693616
     0.051062943  0.666527041  0.559716347
     0.911358868  0.667809325  0.661888332
     0.695336363  0.669023844  0.617616667
     0.405967344  0.666508649  0.582670073
     0.548831953  0.833320019  0.559275635
     0.410245048  0.834334827  0.662991288
     0.347710872  0.833120798  0.758718508
     0.052467192  0.832719692  0.732221298
     0.193205628  0.666347466  0.702773558
     0.842495630  0.661017173  0.757369020
     0.555257971  0.668382083  0.731880444
     0.693844460  0.833609410  0.700374337
     0.488542111  0.000000000  0.241517513
     0.988542111  0.166666667  0.241517513
     0.914066610  0.166666667  0.335270431
     0.630170959  0.166666667  0.300002759
     0.772437762  0.000000000  0.276785185
     0.624124715  0.000000000  0.382588199
     0.414066610  0.000000000  0.335270431
     0.130170959  0.000000000  0.300002759
     0.272437762  0.166666667  0.276785185
     0.124124715  0.166666667  0.382588199
     0.051411532  0.166511978  0.477182867
     0.766094038  0.166717390  0.440759630
     0.909066516  0.999999978  0.418192461
     0.762714196  0.000000000  0.522701391
     0.551020276  0.000000067  0.476984217
     0.265915310  0.999999988  0.441225432
     0.408498323  0.166764254  0.418125373
     0.263345556  0.166898869  0.523253271
     0.194163013  0.166934818  0.619214072
     0.905392636  0.166582368  0.580693699
     0.050694481  0.999999995  0.559910265
     0.911252496  0.999999980  0.662300288
     0.694609050  0.000000097  0.618286500
     0.405195498  0.000000029  0.581871331
     0.548832036  0.166680020  0.559275722
     0.410245242  0.165665516  0.662991483
     0.347710756  0.166878957  0.758718633
     0.052467141  0.167280316  0.732221256
     0.193621711  0.000000013  0.702468403
     0.846756721  0.999999873  0.758123496
     0.555158098  0.000000018  0.732629315
     0.693844566  0.166390731  0.700374621
     0.488542111  0.333333333  0.241517513
     0.988542111  0.500000000  0.241517513
     0.914066610  0.500000000  0.335270431
     0.630170959  0.500000000  0.300002759
     0.772437762  0.333333333  0.276785185
     0.624124715  0.333333333  0.382588199
     0.414066610  0.333333333  0.335270431
     0.130170959  0.333333333  0.300002759
     0.272437762  0.500000000  0.276785185
     0.124124715  0.500000000  0.382588199
     0.052027016  0.499999932  0.477462385
     0.766275161  0.499999939  0.440455151
     0.909455838  0.333390250  0.418221182
     0.763071109  0.334131885  0.522393499
     0.551013624  0.333734994  0.477025177
     0.265897865  0.333460091  0.441323097
     0.408534562  0.499999979  0.418208192
     0.264732354  0.500000019  0.524348529
     0.194709134  0.499999965  0.620051966
     0.905947467  0.499999937  0.581288627
     0.051062912  0.333472873  0.559716401
     0.911358826  0.332190695  0.661888539
     0.695336304  0.330976083  0.617616889
     0.405967321  0.333491371  0.582670046
     0.550059878  0.499999978  0.560451720
     0.411817736  0.499999833  0.666003700
     0.345412885  0.500000201  0.760976752
     0.052441200  0.500000037  0.732061935
     0.193205632  0.333652513  0.702773644
     0.842495796  0.338983164  0.757369304
     0.555258315  0.331618232  0.731881189
     0.690569038  0.499999926  0.696323980

  ion indices of the primitive-cell ions
   primitive index   ion index
                 1           1
                 2           2
                 3           3
                 4           4
                 5           5
                 6           6
                 7           7
                 8           8
                 9           9
                10          10
                11          11
                12          12
                13          13
                14          14
                15          15
                16          16
                17          17
                18          18
                19          19
                20          20
                21          21
                22          22
                23          23
                24          24
                25          25
                26          26
                27          27
                28          28
                29          29
                30          30
                31          31
                32          32
                33          33
                34          34
                35          35
                36          36
                37          37
                38          38
                39          39
                40          40
                41          41
                42          42
                43          43
                44          44
                45          45
                46          46
                47          47
                48          48
                49          49
                50          50
                51          51
                52          52
                53          53
                54          54
                55          55
                56          56
                57          57
                58          58
                59          59
                60          60
                61          61
                62          62
                63          63
                64          64
                65          65
                66          66
                67          67
                68          68
                69          69
                70          70
                71          71
                72          72
                73          73
                74          74
                75          75
                76          76
                77          77
                78          78
                79          79
                80          80
                81          81
                82          82
                83          83
                84          84
                85          85
                86          86
                87          87
                88          88
                89          89
                90          90
                91          91
                92          92
                93          93
                94          94
                95          95
                96          96
                97          97
                98          98
                99          99
               100         100
               101         101
               102         102
               103         103
               104         104
               105         105
               106         106
               107         107
               108         108
               109         109
               110         110
               111         111
               112         112
               113         113
               114         114
               115         115
               116         116
               117         117
               118         118
               119         119
               120         120
               121         121
               122         122
               123         123
               124         124
               125         125
               126         126
               127         127
               128         128
               129         129
               130         130
               131         131
               132         132
               133         133
               134         134
               135         135
               136         136
               137         137
               138         138
               139         139
               140         140
               141         141
               142         142
               143         143
               144         144

----------------------------------------------------------------------------------------



 KPOINTS: pymatgen v2020.8.13 with grid density = 

Automatic generation of k-mesh.
 Grid dimensions read from file:
 generate k-points for:    3    3    1

 Generating k-lattice:

  Cartesian coordinates                     Fractional coordinates (reciprocal lattice)
     0.032561401 -0.000000000  0.000000000     0.333333333 -0.000000000  0.000000000
     0.000000000  0.029476766  0.000000000     0.000000000  0.333333333  0.000000000
     0.000000000  0.000000000  0.040252919     0.000000000  0.000000000  1.000000000

  Length of vectors
     0.032561401  0.029476766  0.040252919

  Shift w.r.t. Gamma in fractional coordinates (k-lattice)
     0.000000000  0.000000000  0.000000000

 
 Subroutine IBZKPT returns following result:
 ===========================================
 
 Found      5 irreducible k-points:
 
 Following reciprocal coordinates:
            Coordinates               Weight
  0.000000  0.000000  0.000000      1.000000
  0.333333  0.000000  0.000000      2.000000
  0.000000  0.333333  0.000000      2.000000
  0.333333  0.333333  0.000000      2.000000
  0.333333 -0.333333  0.000000      2.000000
 
 Following cartesian coordinates:
            Coordinates               Weight
  0.000000  0.000000  0.000000      1.000000
  0.032561  0.000000  0.000000      2.000000
  0.000000  0.029477  0.000000      2.000000
  0.032561  0.029477  0.000000      2.000000
  0.032561 -0.029477  0.000000      2.000000
 
 
 Subroutine IBZKPT_HF returns following result:
 ==============================================
 
 Found      9 k-points in 1st BZ
 the following      9 k-points will be used (e.g. in the exchange kernel)
 Following reciprocal coordinates:   # in IRBZ
  0.000000  0.000000  0.000000    0.11111111   1 t-inv F
  0.333333  0.000000  0.000000    0.11111111   2 t-inv F
  0.000000  0.333333  0.000000    0.11111111   3 t-inv F
  0.333333  0.333333  0.000000    0.11111111   4 t-inv F
  0.333333 -0.333333  0.000000    0.11111111   5 t-inv F
 -0.333333 -0.000000 -0.000000    0.11111111   2 t-inv T
 -0.000000 -0.333333 -0.000000    0.11111111   3 t-inv T
 -0.333333 -0.333333 -0.000000    0.11111111   4 t-inv T
 -0.333333  0.333333 -0.000000    0.11111111   5 t-inv T


--------------------------------------------------------------------------------------------------------




 Dimension of arrays:
   k-points           NKPTS =      5   k-points in BZ     NKDIM =      9   number of bands    NBANDS=    512
   number of dos      NEDOS =    301   number of ions     NIONS =    144
   non local maximal  LDIM  =      5   non local SUM 2l+1 LMDIM =     15
   total plane-waves  NPLWV = 537600
   max r-space proj   IRMAX =      1   max aug-charges    IRDMAX=  13108
   dimension x,y,z NGX =    60 NGY =   64 NGZ =  140
   dimension x,y,z NGXF=   120 NGYF=  128 NGZF=  280
   support grid    NGXF=   120 NGYF=  128 NGZF=  280
   ions per type =              48  96
   NGX,Y,Z   is equivalent  to a cutoff of   9.74,  9.41,  9.37 a.u.
   NGXF,Y,Z  is equivalent  to a cutoff of  19.49, 18.82, 18.74 a.u.

 SYSTEM =  TiO2                                    
 POSCAR =  Ti  O                                   

--------------------------------------------------------------------------------------------------------


  energy-cutoff  :      520.00
  volume of cell :     2875.92
      direct lattice vectors                 reciprocal lattice vectors
    10.237069764  0.000000000  0.000000000     0.097684203 -0.000000000  0.000000000
     0.000000000 11.308341211  0.000000000     0.000000000  0.088430299  0.000000000
     0.000000000  0.000000000 24.842918924     0.000000000  0.000000000  0.040252919

  length of vectors
    10.237069764 11.308341211 24.842918924     0.097684203  0.088430299  0.040252919



 k-points in units of 2pi/SCALE and weight: pymatgen v2020.8.13 with grid density = 
   0.00000000  0.00000000  0.00000000       0.111
   0.03256140  0.00000000  0.00000000       0.222
   0.00000000  0.02947677  0.00000000       0.222
   0.03256140  0.02947677  0.00000000       0.222
   0.03256140 -0.02947677  0.00000000       0.222

 k-points in reciprocal lattice and weights: pymatgen v2020.8.13 with grid density = 
   0.00000000  0.00000000  0.00000000       0.111
   0.33333333  0.00000000  0.00000000       0.222
   0.00000000  0.33333333  0.00000000       0.222
   0.33333333  0.33333333  0.00000000       0.222
   0.33333333 -0.33333333  0.00000000       0.222

 position of ions in fractional coordinates (direct lattice) 
   0.80935653  0.83333333  0.27076014
   0.59325219  0.66666667  0.30602781
   0.30935653  0.66666667  0.27076014
   0.09325219  0.83333333  0.30602781
   0.94617254  0.83342359  0.41328064
   0.72806612  0.66635998  0.44547257
   0.44546189  0.66649087  0.41311391
   0.22714395  0.83329651  0.44598489
   0.08725657  0.83352313  0.55584905
   0.86675297  0.66634852  0.58417210
   0.58551356  0.66648867  0.55473776
   0.36552434  0.83335357  0.58561690
   0.23218527  0.83273764  0.70124038
   0.00190449  0.66576698  0.72348324
   0.73012100  0.66574228  0.69741591
   0.50479581  0.83415234  0.72363385
   0.80935653  0.16666667  0.27076014
   0.59325219  0.00000000  0.30602781
   0.30935653  0.00000000  0.27076014
   0.09325219  0.16666667  0.30602781
   0.94617256  0.16657637  0.41328064
   0.72747288  0.99999998  0.44565365
   0.44563656  0.00000001  0.41324358
   0.22714396  0.16670350  0.44598492
   0.08725664  0.16647685  0.55584906
   0.86558074  0.99999998  0.58476735
   0.58608064  0.00000005  0.55532759
   0.36552434  0.16664648  0.58561700
   0.23218535  0.16726231  0.70124046
   0.00406709  0.99999997  0.72345062
   0.73298561  0.00000001  0.69996447
   0.50479570  0.16584770  0.72363405
   0.80935653  0.50000000  0.27076014
   0.59325219  0.33333333  0.30602781
   0.30935653  0.33333333  0.27076014
   0.09325219  0.50000000  0.30602781
   0.94733394  0.49999994  0.41311035
   0.72806605  0.33363994  0.44547260
   0.44546194  0.33350911  0.41311391
   0.22746303  0.49999998  0.44704656
   0.08974445  0.49999992  0.55609936
   0.86675286  0.33365137  0.58417224
   0.58551370  0.33351130  0.55473787
   0.36733886  0.49999999  0.58879189
   0.23521178  0.50000004  0.70177325
   0.00190474  0.33423308  0.72348333
   0.73012111  0.33425790  0.69741617
   0.50677289  0.50000012  0.73025909
   0.48854211  0.66666667  0.24151751
   0.98854211  0.83333333  0.24151751
   0.91406661  0.83333333  0.33527043
   0.63017096  0.83333333  0.30000276
   0.77243776  0.66666667  0.27678518
   0.62412472  0.66666667  0.38258820
   0.41406661  0.66666667  0.33527043
   0.13017096  0.66666667  0.30000276
   0.27243776  0.83333333  0.27678518
   0.12412472  0.83333333  0.38258820
   0.05141150  0.83348798  0.47718284
   0.76609401  0.83328258  0.44075962
   0.90945584  0.66660968  0.41822118
   0.76307110  0.66586803  0.52239342
   0.55101357  0.66626492  0.47702516
   0.26589787  0.66653988  0.44132309
   0.40849836  0.83323572  0.41812539
   0.26334549  0.83310111  0.52325322
   0.19416289  0.83306515  0.61921401
   0.90539257  0.83341760  0.58069362
   0.05106294  0.66652704  0.55971635
   0.91135887  0.66780933  0.66188833
   0.69533636  0.66902384  0.61761667
   0.40596734  0.66650865  0.58267007
   0.54883195  0.83332002  0.55927563
   0.41024505  0.83433483  0.66299129
   0.34771087  0.83312080  0.75871851
   0.05246719  0.83271969  0.73222130
   0.19320563  0.66634747  0.70277356
   0.84249563  0.66101717  0.75736902
   0.55525797  0.66838208  0.73188044
   0.69384446  0.83360941  0.70037434
   0.48854211  0.00000000  0.24151751
   0.98854211  0.16666667  0.24151751
   0.91406661  0.16666667  0.33527043
   0.63017096  0.16666667  0.30000276
   0.77243776  0.00000000  0.27678518
   0.62412472  0.00000000  0.38258820
   0.41406661  0.00000000  0.33527043
   0.13017096  0.00000000  0.30000276
   0.27243776  0.16666667  0.27678518
   0.12412472  0.16666667  0.38258820
   0.05141153  0.16651198  0.47718287
   0.76609404  0.16671739  0.44075963
   0.90906652  0.99999998  0.41819246
   0.76271420  0.00000000  0.52270139
   0.55102028  0.00000007  0.47698422
   0.26591531  0.99999999  0.44122543
   0.40849832  0.16676425  0.41812537
   0.26334556  0.16689887  0.52325327
   0.19416301  0.16693482  0.61921407
   0.90539264  0.16658237  0.58069370
   0.05069448  0.99999999  0.55991027
   0.91125250  0.99999998  0.66230029
   0.69460905  0.00000010  0.61828650
   0.40519550  0.00000003  0.58187133
   0.54883204  0.16668002  0.55927572
   0.41024524  0.16566552  0.66299148
   0.34771076  0.16687896  0.75871863
   0.05246714  0.16728032  0.73222126
   0.19362171  0.00000001  0.70246840
   0.84675672  0.99999987  0.75812350
   0.55515810  0.00000002  0.73262931
   0.69384457  0.16639073  0.70037462
   0.48854211  0.33333333  0.24151751
   0.98854211  0.50000000  0.24151751
   0.91406661  0.50000000  0.33527043
   0.63017096  0.50000000  0.30000276
   0.77243776  0.33333333  0.27678518
   0.62412472  0.33333333  0.38258820
   0.41406661  0.33333333  0.33527043
   0.13017096  0.33333333  0.30000276
   0.27243776  0.50000000  0.27678518
   0.12412472  0.50000000  0.38258820
   0.05202702  0.49999993  0.47746239
   0.76627516  0.49999994  0.44045515
   0.90945584  0.33339025  0.41822118
   0.76307111  0.33413189  0.52239350
   0.55101362  0.33373499  0.47702518
   0.26589787  0.33346009  0.44132310
   0.40853456  0.49999998  0.41820819
   0.26473235  0.50000002  0.52434853
   0.19470913  0.49999996  0.62005197
   0.90594747  0.49999994  0.58128863
   0.05106291  0.33347287  0.55971640
   0.91135883  0.33219069  0.66188854
   0.69533630  0.33097608  0.61761689
   0.40596732  0.33349137  0.58267005
   0.55005988  0.49999998  0.56045172
   0.41181774  0.49999983  0.66600370
   0.34541288  0.50000020  0.76097675
   0.05244120  0.50000004  0.73206194
   0.19320563  0.33365251  0.70277364
   0.84249580  0.33898316  0.75736930
   0.55525831  0.33161823  0.73188119
   0.69056904  0.49999993  0.69632398

 position of ions in cartesian coordinates  (Angst):
   8.28543931  9.42361768  6.72647211
   6.07316402  7.53889414  7.60262401
   3.16690443  7.53889414  6.72647211
   0.95462913  9.42361768  7.60262401
   9.68603426  9.42463834 10.26709736
   7.45326363  7.53542602 11.06683895
   4.56022448  7.53690615 10.26295528
   2.32528848  9.42320121 11.07956652
   0.89325160  9.42576392 13.80891293
   8.87301063  7.53529647 14.51254019
   5.99394315  7.53688134 13.78130531
   3.74189812  9.42384654 14.54843326
   2.37689676  9.41688132 17.42085793
   0.01949637  7.52872014 17.97343541
   7.47429963  7.52844083 17.32584683
   5.16762988  9.43287924 17.97717697
   8.28543931  1.88472354  6.72647211
   6.07316402  0.00000000  7.60262401
   3.16690443  0.00000000  6.72647211
   0.95462913  1.88472354  7.60262401
   9.68603447  1.88370248 10.26709744
   7.44719062 11.30834098 11.07133748
   4.56201252  0.00000008 10.26617676
   2.32528855  1.88514007 11.07956732
   0.89325230  1.88257704 13.80891313
   8.86101038 11.30834094 14.52732791
   5.99974835  0.00000051 13.79595830
   3.74189815  1.88449527 14.54843558
   2.37689759  1.89145929 17.42086000
   0.04163511 11.30834083 17.97262499
   7.50362487  0.00000007 17.38916067
   5.16762875  1.87546235 17.97718205
   8.28543931  5.65417061  6.72647211
   6.07316402  3.76944707  7.60262401
   3.16690443  3.76944707  6.72647211
   0.95462913  5.65417061  7.60262401
   9.69792366  5.65416988 10.26286691
   7.45326290  3.77291426 11.06683971
   4.56022498  3.77143480 10.26295547
   2.32855487  5.65417033 11.10594137
   0.91872016  5.65416968 13.81513139
   8.87300953  3.77304353 14.51254371
   5.99394460  3.77145956 13.78130786
   3.76047350  5.65417051 14.62730915
   2.40787938  5.65417105 17.43409607
   0.01949896  3.77962175 17.97343765
   7.47430077  3.77990240 17.32585325
   5.18786939  5.65417197 18.14176745
   5.00123967  7.53889414  6.00000000
  10.11977455  9.42361768  6.00000000
   9.35736366  9.42361768  8.32909613
   6.45110407  9.42361768  7.45294423
   7.90749926  7.53889414  6.87615190
   6.38920825  7.53889414  9.50460760
   4.23882877  7.53889414  8.32909613
   1.33256919  7.53889414  7.45294423
   2.78896437  9.42361768  6.87615190
   1.27067337  9.42361768  9.50460760
   0.52630315  9.42536646 11.85461463
   7.84255786  9.42304377 10.94975560
   9.31016284  7.53824968 10.38983483
   7.81161208  7.52986288 12.97777735
   5.64076432  7.53435109 11.85069728
   2.72201506  7.53746034 10.96375383
   4.18182616  9.42251378 10.38745504
   2.69588614  9.42099162 12.99913736
   1.98765906  9.42058499 15.38308343
   9.26856688  9.42457064 14.42612443
   0.52273491  7.53731521 13.90498784
   9.32964431  7.55181572 16.44323816
   7.11820686  7.56554991 15.34340080
   4.15591603  7.53710723 14.47522539
   5.61843099  9.42346711 13.89403925
   4.19970718  9.43494291 16.47063882
   3.55954045  9.42121425 18.84878238
   0.53711030  9.41667841 18.19051435
   1.97785949  7.53528451 17.45894652
   8.62468654  7.47500774 18.81525716
   5.68421459  7.55829266 18.18204653
   7.10293414  9.42673965 17.39934287
   5.00123967  0.00000000  6.00000000
  10.11977455  1.88472354  6.00000000
   9.35736366  1.88472354  8.32909613
   6.45110407  1.88472354  7.45294423
   7.90749926  0.00000000  6.87615190
   6.38920825  0.00000000  9.50460760
   4.23882877  0.00000000  8.32909613
   1.33256919  0.00000000  7.45294423
   2.78896437  1.88472354  6.87615190
   1.27067337  1.88472354  9.50460760
   0.52630344  1.88297426 11.85461529
   7.84255811  1.88529713 10.94975575
   9.30617735 11.30834096 10.38912140
   7.80795844  0.00000000 12.98542827
   5.64083300  0.00000075 11.84968023
   2.72219358 11.30834108 10.96132764
   4.18182583  1.88582709 10.38745475
   2.69588683  1.88734936 12.99913859
   1.98766031  1.88775588 15.38308498
   9.26856757  1.88377026 14.42612649
   0.51896294 11.30834115 13.90980532
   9.32855537 11.30834098 16.45347236
   7.11076131  0.00000110 15.36004139
   4.14801458  0.00000032 14.45538231
   5.61843184  1.88487454 13.89404141
   4.19970916  1.87340218 16.47064366
   3.55953927  1.88712418 18.84878548
   0.53710978  1.89166289 18.19051329
   1.98211896  0.00000014 17.45136559
   8.66830762 11.30833978 18.83400055
   5.68319218  0.00000021 18.20065067
   7.10293523  1.88160316 17.39934993
   5.00123967  3.76944707  6.00000000
  10.11977455  5.65417061  6.00000000
   9.35736366  5.65417061  8.32909613
   6.45110407  5.65417061  7.45294423
   7.90749926  3.76944707  6.87615190
   6.38920825  3.76944707  9.50460760
   4.23882877  3.76944707  8.32909613
   1.33256919  3.76944707  7.45294423
   2.78896437  5.65417061  6.87615190
   1.27067337  5.65417061  9.50460760
   0.53260419  5.65416984 11.86155933
   7.84441229  5.65416992 10.94219160
   9.31016286  3.77009071 10.38983493
   7.81161218  3.77847737 12.97777934
   5.64076491  3.77398918 11.85069779
   2.72201500  3.77088049 10.96375392
   4.18219681  5.65417037 10.38951221
   2.71008358  5.65417082 13.02634799
   1.99325099  5.65417021 15.40390071
   9.27424743  5.65416989 14.44090624
   0.52273459  3.77102504 13.90498917
   9.32964388  3.75652572 16.44324332
   7.11820625  3.74279048 15.34340629
   4.15591579  3.77123422 14.47522470
   5.63100135  5.65417035 13.92325664
   4.21580689  5.65416871 16.54547591
   3.53601580  5.65417288 18.90488375
   0.53684423  5.65417103 18.18655531
   1.97785954  3.77305646 17.45894866
   8.62468824  3.83333728 18.81526423
   5.68421811  3.75005212 18.18206504
   7.06940342  5.65416977 17.29872018



--------------------------------------------------------------------------------------------------------

--------------------------------------- Iteration      FINAL  ---------------------------------------


--------------------OUTCAR has been truncated-------------------------


--------------------OUTCAR has been truncated-------------------------


--------------------OUTCAR has been truncated-------------------------


--------------------OUTCAR has been truncated-------------------------


--------------------OUTCAR has been truncated-------------------------


--------------------OUTCAR has been truncated-------------------------


--------------------OUTCAR has been truncated-------------------------


--------------------OUTCAR has been truncated-------------------------


--------------------OUTCAR has been truncated-------------------------


--------------------OUTCAR has been truncated-------------------------


    FORVDW:  cpu time     24.9886: real time     25.1801

  FORCE on cell =-STRESS in cart. coord.  units (eV):
  Direction    XX          YY          ZZ          XY          YZ          ZX
  --------------------------------------------------------------------------------------
  Alpha Z  1723.07143  1723.07143  1723.07143
  Ewald  175225.47644173263.29750************    -0.00053    -0.00017  -705.34276
  Hartree186715.65559186067.82136************    -0.00009    -0.00017  -315.08908
  E(xc)   -2805.70634 -2796.98947 -2788.69016     0.00001     0.00000    -1.10397
  Local  ************************364688.08828     0.00056     0.00034  1031.98765
  n-local -1730.65638 -1716.00388 -1763.99719    -0.00001    -0.00001    -8.61575
  augment   804.29097   799.65949   801.25873     0.00000    -0.00000    -1.37745
  Kinetic 13851.54544 13931.29367 13994.71939     0.00009    -0.00002   -11.80820
  Fock    -1293.91173 -1280.28505 -1278.80986     0.00000     0.00000     0.74584
  vdW       -27.43840   -28.84239   -23.99418     0.00000    -0.00000    -0.21499
  -------------------------------------------------------------------------------------
  Total     -52.58569   -18.76872   -14.95197     0.00004    -0.00003   -10.81870
  in kB     -29.29550   -10.45606    -8.32975     0.00002    -0.00001    -6.02710
  external pressure =      -16.03 kB  Pullay stress =        0.00 kB


 VOLUME and BASIS-vectors are now :
 -----------------------------------------------------------------------------
  energy-cutoff  :      520.00
  volume of cell :     2875.92
      direct lattice vectors                 reciprocal lattice vectors
    10.237069764  0.000000000  0.000000000     0.097684203 -0.000000000  0.000000000
     0.000000000 11.308341211  0.000000000     0.000000000  0.088430299  0.000000000
     0.000000000  0.000000000 24.842918924     0.000000000  0.000000000  0.040252919

  length of vectors
    10.237069764 11.308341211 24.842918924     0.097684203  0.088430299  0.040252919


 FORCES acting on ions:
    Electron-Ion                     Ewald-Force                    Non-Local-Force
 -----------------------------------------------------------------------------------------------
   0.966E+01 0.334E-02 0.884E+03   -.670E+01 -.104E-02 -.881E+03   0.934E+00 0.831E-03 -.200E+01
   -.151E+01 -.539E-02 0.711E+03   0.480E+00 0.797E-02 -.712E+03   -.712E+00 0.746E-04 -.848E+00
   0.966E+01 0.546E-01 0.884E+03   -.672E+01 -.562E-01 -.881E+03   0.924E+00 -.370E-03 -.201E+01
   -.192E+01 0.471E-01 0.711E+03   0.857E+00 -.500E-01 -.712E+03   -.722E+00 -.467E-03 -.851E+00
   -.513E+00 0.999E-01 0.321E+03   0.382E+00 -.104E+00 -.322E+03   0.116E+00 0.265E-02 0.403E-01
   0.577E+00 -.452E+00 0.201E+03   -.448E+00 0.464E+00 -.201E+03   -.409E-01 0.119E-01 -.131E+00
   0.106E+00 0.634E-01 0.322E+03   -.201E+00 -.533E-01 -.322E+03   0.105E+00 0.303E-02 0.149E-01
   -.120E+01 0.307E+00 0.199E+03   0.139E+01 -.305E+00 -.199E+03   -.440E-01 0.240E-02 -.123E+00
   -.261E+01 0.848E-01 -.211E+03   0.239E+01 -.967E-01 0.211E+03   0.198E+00 0.883E-02 0.173E+00
   -.208E+01 0.381E+00 -.311E+03   0.250E+01 -.325E+00 0.312E+03   -.118E+00 -.346E-01 -.229E+00
   -.114E-03 0.494E+00 -.204E+03   -.750E-01 -.460E+00 0.204E+03   0.160E+00 0.576E-02 0.107E+00
   -.493E-01 0.795E+00 -.318E+03   0.456E+00 -.774E+00 0.318E+03   -.145E+00 0.148E-02 -.259E+00
   0.691E+01 -.306E+00 -.721E+03   -.787E+01 0.361E+00 0.721E+03   0.580E+00 0.116E-01 0.338E-01
   -.228E+02 -.328E+01 -.831E+03   0.240E+02 0.321E+01 0.832E+03   -.245E+00 0.112E+00 0.774E+00
   0.331E+01 -.194E+01 -.713E+03   -.363E+01 0.212E+01 0.712E+03   0.641E+00 0.430E-02 0.254E+00
   -.248E+02 -.902E+00 -.830E+03   0.263E+02 0.104E+01 0.830E+03   -.982E-01 0.400E-01 0.716E+00
   0.966E+01 -.335E-02 0.884E+03   -.670E+01 0.104E-02 -.881E+03   0.934E+00 -.831E-03 -.200E+01
   -.158E+01 -.474E-05 0.711E+03   0.526E+00 0.468E-05 -.712E+03   -.716E+00 0.778E-06 -.850E+00
   0.965E+01 -.329E-05 0.884E+03   -.669E+01 0.297E-05 -.881E+03   0.931E+00 0.786E-06 -.200E+01
   -.192E+01 -.471E-01 0.711E+03   0.857E+00 0.500E-01 -.712E+03   -.722E+00 0.467E-03 -.851E+00
   -.513E+00 -.999E-01 0.321E+03   0.382E+00 0.104E+00 -.322E+03   0.116E+00 -.265E-02 0.403E-01
   -.259E+00 -.886E-05 0.200E+03   0.413E+00 0.909E-05 -.200E+03   -.285E-01 -.219E-05 -.129E+00
   0.248E-01 0.265E-04 0.322E+03   -.135E+00 -.301E-04 -.322E+03   0.110E+00 -.180E-05 0.280E-01
   -.120E+01 -.307E+00 0.199E+03   0.139E+01 0.305E+00 -.199E+03   -.440E-01 -.240E-02 -.122E+00
   -.261E+01 -.848E-01 -.211E+03   0.239E+01 0.968E-01 0.211E+03   0.198E+00 -.883E-02 0.173E+00
   -.175E+01 -.460E-04 -.315E+03   0.220E+01 0.510E-04 0.316E+03   -.122E+00 -.198E-05 -.230E+00
   -.129E+01 -.157E-04 -.208E+03   0.112E+01 0.136E-04 0.208E+03   0.189E+00 -.234E-05 0.176E+00
   -.495E-01 -.795E+00 -.318E+03   0.457E+00 0.774E+00 0.318E+03   -.145E+00 -.148E-02 -.259E+00
   0.691E+01 0.306E+00 -.721E+03   -.787E+01 -.360E+00 0.721E+03   0.580E+00 -.116E-01 0.338E-01
   -.243E+02 -.402E-04 -.829E+03   0.258E+02 0.475E-04 0.830E+03   -.132E+00 0.567E-05 0.695E+00
   0.470E+01 -.168E-03 -.719E+03   -.549E+01 0.196E-03 0.718E+03   0.562E+00 0.114E-04 0.885E-01
   -.248E+02 0.902E+00 -.830E+03   0.263E+02 -.104E+01 0.830E+03   -.982E-01 -.400E-01 0.716E+00
   0.965E+01 0.416E-05 0.884E+03   -.669E+01 -.385E-05 -.881E+03   0.937E+00 -.144E-06 -.200E+01
   -.151E+01 0.540E-02 0.711E+03   0.480E+00 -.798E-02 -.712E+03   -.712E+00 -.747E-04 -.848E+00
   0.966E+01 -.546E-01 0.884E+03   -.672E+01 0.562E-01 -.881E+03   0.924E+00 0.369E-03 -.201E+01
   -.208E+01 0.562E-05 0.711E+03   0.105E+01 -.455E-05 -.712E+03   -.721E+00 -.107E-05 -.825E+00
   -.568E+00 0.152E-04 0.321E+03   0.376E+00 -.101E-04 -.321E+03   0.119E+00 0.808E-06 0.608E-01
   0.577E+00 0.452E+00 0.201E+03   -.448E+00 -.464E+00 -.201E+03   -.409E-01 -.119E-01 -.131E+00
   0.106E+00 -.633E-01 0.322E+03   -.201E+00 0.532E-01 -.322E+03   0.105E+00 -.303E-02 0.149E-01
   -.165E+01 0.268E-04 0.194E+03   0.186E+01 -.230E-04 -.194E+03   -.583E-01 0.161E-05 -.468E-01
   -.182E+01 0.720E-04 -.213E+03   0.144E+01 -.671E-04 0.212E+03   0.165E+00 0.177E-05 0.169E+00
   -.208E+01 -.381E+00 -.311E+03   0.250E+01 0.325E+00 0.312E+03   -.118E+00 0.346E-01 -.229E+00
   -.259E-03 -.494E+00 -.204E+03   -.749E-01 0.460E+00 0.204E+03   0.160E+00 -.575E-02 0.107E+00
   -.968E+00 -.171E-04 -.331E+03   0.133E+01 0.167E-04 0.331E+03   -.160E+00 0.177E-05 -.112E+00
   0.725E+01 0.112E-03 -.723E+03   -.855E+01 -.118E-03 0.722E+03   0.402E+00 -.982E-06 0.375E-01
   -.228E+02 0.328E+01 -.831E+03   0.240E+02 -.321E+01 0.832E+03   -.245E+00 -.112E+00 0.774E+00
   0.331E+01 0.194E+01 -.713E+03   -.363E+01 -.212E+01 0.712E+03   0.641E+00 -.431E-02 0.254E+00
   -.293E+02 -.146E-03 -.860E+03   0.300E+02 0.107E-03 0.858E+03   0.391E-01 0.992E-06 0.115E+01
   -.745E+01 0.190E-01 0.142E+04   0.128E+02 -.180E-01 -.144E+04   -.636E+01 -.249E-02 0.164E+02
   -.764E+01 0.119E-01 0.142E+04   0.130E+02 -.120E-01 -.144E+04   -.635E+01 0.171E-02 0.164E+02
   0.453E+02 0.562E-01 0.896E+03   -.502E+02 -.620E-01 -.892E+03   0.340E+01 0.570E-02 -.400E+01
   0.328E+02 0.103E-01 0.109E+04   -.402E+02 -.627E-02 -.109E+04   0.682E+01 -.548E-02 -.247E+01
   -.446E+02 -.254E-01 0.125E+04   0.521E+02 0.256E-01 -.125E+04   -.628E+01 -.332E-02 -.271E+00
   -.377E+02 -.291E+00 0.668E+03   0.436E+02 0.336E+00 -.672E+03   -.525E+01 -.379E-01 0.387E+01
   0.459E+02 0.196E+00 0.896E+03   -.508E+02 -.178E+00 -.892E+03   0.336E+01 -.202E-01 -.384E+01
   0.322E+02 0.102E+00 0.109E+04   -.397E+02 -.110E+00 -.109E+04   0.684E+01 0.131E-01 -.248E+01
   -.447E+02 0.657E-01 0.125E+04   0.522E+02 -.627E-01 -.125E+04   -.625E+01 -.521E-02 -.274E+00
   -.399E+02 0.259E+00 0.668E+03   0.461E+02 -.261E+00 -.672E+03   -.541E+01 -.376E-03 0.398E+01
   0.407E+02 -.104E-01 0.105E+03   -.476E+02 0.373E-01 -.999E+02   0.598E+01 -.236E-01 -.455E+01
   0.414E+02 0.956E-01 0.313E+03   -.484E+02 -.132E+00 -.310E+03   0.607E+01 0.300E-01 -.261E+01
   -.423E+02 0.654E-01 0.470E+03   0.492E+02 -.577E-01 -.473E+03   -.598E+01 -.107E-01 0.241E+01
   -.367E+02 0.803E+00 -.106E+03   0.418E+02 -.954E+00 0.101E+03   -.450E+01 0.129E+00 0.450E+01
   0.427E+02 0.945E+00 0.107E+03   -.492E+02 -.997E+00 -.103E+03   0.565E+01 0.420E-01 -.368E+01
   0.401E+02 0.102E+01 0.309E+03   -.469E+02 -.981E+00 -.306E+03   0.593E+01 -.372E-01 -.256E+01
   -.411E+02 0.316E+00 0.471E+03   0.479E+02 -.312E+00 -.473E+03   -.586E+01 -.647E-02 0.247E+01
   -.380E+02 0.102E+01 -.111E+03   0.437E+02 -.109E+01 0.105E+03   -.493E+01 0.600E-01 0.498E+01
   0.451E+02 0.452E+00 -.692E+03   -.515E+02 -.473E+00 0.700E+03   0.565E+01 0.135E-01 -.675E+01
   0.395E+02 -.638E+00 -.465E+03   -.467E+02 0.560E+00 0.468E+03   0.625E+01 0.690E-01 -.262E+01
   -.445E+02 0.543E+00 -.319E+03   0.514E+02 -.500E+00 0.316E+03   -.591E+01 -.559E-01 0.233E+01
   -.422E+02 -.281E+01 -.871E+03   0.447E+02 0.343E+01 0.861E+03   -.227E+01 -.551E+00 0.837E+01
   0.452E+02 -.401E+01 -.678E+03   -.517E+02 0.475E+01 0.684E+03   0.567E+01 -.663E+00 -.531E+01
   0.408E+02 0.158E+01 -.478E+03   -.476E+02 -.146E+01 0.481E+03   0.591E+01 -.159E+00 -.268E+01
   -.413E+02 0.213E-01 -.314E+03   0.480E+02 -.543E-01 0.312E+03   -.584E+01 0.167E-01 0.240E+01
   -.371E+02 -.898E+00 -.873E+03   0.389E+02 0.114E+01 0.864E+03   -.155E+01 -.225E+00 0.839E+01
   0.163E+02 -.770E+00 -.142E+04   -.219E+02 0.766E+00 0.144E+04   0.493E+01 -.106E-01 -.201E+02
   0.347E+02 0.356E+00 -.128E+04   -.397E+02 -.481E+00 0.129E+04   0.436E+01 0.151E+00 -.717E+01
   -.273E+02 -.103E+01 -.109E+04   0.323E+02 0.952E+00 0.109E+04   -.424E+01 -.178E-01 0.237E+01
   0.165E+02 0.222E+00 -.141E+04   -.231E+02 -.133E+01 0.144E+04   0.590E+01 0.107E+01 -.198E+02
   0.307E+02 0.108E+01 -.128E+04   -.353E+02 -.758E+00 0.129E+04   0.391E+01 -.792E+00 -.590E+01
   -.307E+02 -.303E+00 -.108E+04   0.366E+02 -.452E-01 0.108E+04   -.521E+01 0.300E+00 0.260E+01
   -.749E+01 -.615E-05 0.142E+04   0.128E+02 0.237E-05 -.144E+04   -.635E+01 0.160E-05 0.164E+02
   -.764E+01 -.119E-01 0.142E+04   0.130E+02 0.120E-01 -.144E+04   -.635E+01 -.171E-02 0.164E+02
   0.453E+02 -.562E-01 0.896E+03   -.502E+02 0.620E-01 -.892E+03   0.340E+01 -.570E-02 -.400E+01
   0.328E+02 -.103E-01 0.109E+04   -.402E+02 0.628E-02 -.109E+04   0.682E+01 0.549E-02 -.247E+01
   -.446E+02 -.923E-05 0.125E+04   0.521E+02 0.687E-05 -.125E+04   -.627E+01 -.146E-05 -.277E+00
   -.381E+02 -.158E-04 0.669E+03   0.440E+02 0.152E-04 -.673E+03   -.527E+01 -.543E-06 0.393E+01
   0.456E+02 -.484E-05 0.896E+03   -.505E+02 -.158E-05 -.891E+03   0.335E+01 0.467E-05 -.395E+01
   0.324E+02 -.948E-05 0.109E+04   -.398E+02 0.105E-04 -.109E+04   0.684E+01 0.136E-07 -.246E+01
   -.447E+02 -.657E-01 0.125E+04   0.522E+02 0.627E-01 -.125E+04   -.625E+01 0.521E-02 -.274E+00
   -.399E+02 -.259E+00 0.668E+03   0.461E+02 0.261E+00 -.672E+03   -.541E+01 0.375E-03 0.398E+01
   0.407E+02 0.103E-01 0.105E+03   -.476E+02 -.372E-01 -.999E+02   0.598E+01 0.236E-01 -.455E+01
   0.414E+02 -.956E-01 0.313E+03   -.484E+02 0.132E+00 -.310E+03   0.607E+01 -.299E-01 -.261E+01
   -.416E+02 -.802E-04 0.470E+03   0.484E+02 0.820E-04 -.473E+03   -.588E+01 -.117E-05 0.243E+01
   -.369E+02 -.905E-04 -.108E+03   0.423E+02 0.912E-04 0.103E+03   -.469E+01 0.787E-06 0.473E+01
   0.417E+02 -.118E-03 0.107E+03   -.483E+02 0.133E-03 -.102E+03   0.572E+01 -.137E-04 -.427E+01
   0.402E+02 -.917E-04 0.309E+03   -.470E+02 0.984E-04 -.306E+03   0.594E+01 -.372E-05 -.269E+01
   -.411E+02 -.316E+00 0.471E+03   0.479E+02 0.312E+00 -.473E+03   -.586E+01 0.646E-02 0.247E+01
   -.380E+02 -.102E+01 -.111E+03   0.437E+02 0.109E+01 0.105E+03   -.493E+01 -.599E-01 0.498E+01
   0.451E+02 -.452E+00 -.692E+03   -.515E+02 0.473E+00 0.700E+03   0.565E+01 -.135E-01 -.675E+01
   0.395E+02 0.638E+00 -.465E+03   -.467E+02 -.559E+00 0.468E+03   0.625E+01 -.689E-01 -.262E+01
   -.436E+02 -.111E-03 -.321E+03   0.502E+02 0.116E-03 0.319E+03   -.574E+01 0.193E-05 0.216E+01
   -.405E+02 -.426E-04 -.871E+03   0.428E+02 0.535E-04 0.862E+03   -.202E+01 -.869E-05 0.851E+01
   0.449E+02 -.302E-03 -.686E+03   -.515E+02 0.331E-03 0.694E+03   0.568E+01 -.228E-04 -.663E+01
   0.405E+02 -.231E-03 -.473E+03   -.473E+02 0.234E-03 0.476E+03   0.593E+01 0.704E-05 -.278E+01
   -.413E+02 -.214E-01 -.314E+03   0.480E+02 0.545E-01 0.312E+03   -.584E+01 -.167E-01 0.240E+01
   -.371E+02 0.898E+00 -.873E+03   0.389E+02 -.114E+01 0.864E+03   -.155E+01 0.225E+00 0.839E+01
   0.163E+02 0.770E+00 -.142E+04   -.219E+02 -.766E+00 0.144E+04   0.493E+01 0.106E-01 -.201E+02
   0.347E+02 -.356E+00 -.128E+04   -.397E+02 0.481E+00 0.129E+04   0.436E+01 -.151E+00 -.717E+01
   -.276E+02 0.887E-04 -.109E+04   0.336E+02 -.109E-03 0.109E+04   -.522E+01 0.853E-05 0.258E+01
   0.158E+02 0.211E-03 -.142E+04   -.217E+02 -.225E-03 0.144E+04   0.519E+01 0.123E-04 -.202E+02
   0.302E+02 0.188E-03 -.129E+04   -.345E+02 -.198E-03 0.130E+04   0.373E+01 0.103E-04 -.764E+01
   -.307E+02 0.303E+00 -.108E+04   0.366E+02 0.452E-01 0.108E+04   -.521E+01 -.300E+00 0.260E+01
   -.745E+01 -.190E-01 0.142E+04   0.128E+02 0.180E-01 -.144E+04   -.636E+01 0.249E-02 0.164E+02
   -.768E+01 0.394E-05 0.142E+04   0.130E+02 -.296E-05 -.144E+04   -.636E+01 0.143E-05 0.164E+02
   0.452E+02 0.145E-04 0.896E+03   -.503E+02 -.414E-05 -.892E+03   0.348E+01 -.873E-05 -.397E+01
   0.329E+02 0.927E-05 0.109E+04   -.403E+02 -.954E-05 -.109E+04   0.681E+01 -.251E-05 -.247E+01
   -.446E+02 0.255E-01 0.125E+04   0.521E+02 -.257E-01 -.125E+04   -.628E+01 0.333E-02 -.271E+00
   -.377E+02 0.291E+00 0.668E+03   0.436E+02 -.336E+00 -.672E+03   -.525E+01 0.379E-01 0.387E+01
   0.459E+02 -.196E+00 0.896E+03   -.508E+02 0.178E+00 -.892E+03   0.336E+01 0.202E-01 -.384E+01
   0.322E+02 -.102E+00 0.109E+04   -.397E+02 0.110E+00 -.109E+04   0.684E+01 -.131E-01 -.248E+01
   -.447E+02 0.809E-05 0.125E+04   0.522E+02 -.664E-05 -.125E+04   -.624E+01 0.114E-05 -.290E+00
   -.420E+02 0.369E-05 0.667E+03   0.491E+02 0.796E-05 -.670E+03   -.609E+01 -.920E-05 0.376E+01
   0.408E+02 0.108E-03 0.104E+03   -.484E+02 -.108E-03 -.986E+02   0.659E+01 0.284E-06 -.452E+01
   0.408E+02 0.552E-04 0.315E+03   -.475E+02 -.415E-04 -.312E+03   0.581E+01 -.455E-05 -.239E+01
   -.423E+02 -.654E-01 0.470E+03   0.492E+02 0.576E-01 -.473E+03   -.598E+01 0.107E-01 0.241E+01
   -.367E+02 -.803E+00 -.106E+03   0.418E+02 0.954E+00 0.101E+03   -.450E+01 -.129E+00 0.450E+01
   0.427E+02 -.945E+00 0.107E+03   -.492E+02 0.997E+00 -.103E+03   0.565E+01 -.420E-01 -.368E+01
   0.401E+02 -.102E+01 0.309E+03   -.469E+02 0.981E+00 -.306E+03   0.593E+01 0.371E-01 -.256E+01
   -.398E+02 0.575E-04 0.470E+03   0.463E+02 -.510E-04 -.472E+03   -.563E+01 -.684E-05 0.248E+01
   -.414E+02 0.303E-04 -.117E+03   0.487E+02 -.150E-04 0.112E+03   -.632E+01 -.168E-04 0.431E+01
   0.446E+02 0.992E-04 -.694E+03   -.521E+02 -.104E-03 0.702E+03   0.663E+01 0.241E-05 -.654E+01
   0.375E+02 0.200E-03 -.469E+03   -.439E+02 -.202E-03 0.472E+03   0.559E+01 0.102E-05 -.272E+01
   -.445E+02 -.542E+00 -.319E+03   0.514E+02 0.500E+00 0.316E+03   -.591E+01 0.559E-01 0.233E+01
   -.422E+02 0.281E+01 -.871E+03   0.447E+02 -.343E+01 0.861E+03   -.227E+01 0.551E+00 0.837E+01
   0.452E+02 0.401E+01 -.678E+03   -.517E+02 -.475E+01 0.684E+03   0.567E+01 0.663E+00 -.531E+01
   0.408E+02 -.158E+01 -.478E+03   -.476E+02 0.145E+01 0.481E+03   0.591E+01 0.159E+00 -.268E+01
   -.391E+02 0.154E-03 -.322E+03   0.456E+02 -.162E-03 0.320E+03   -.568E+01 0.241E-06 0.205E+01
   -.402E+02 0.511E-03 -.887E+03   0.452E+02 -.570E-03 0.880E+03   -.404E+01 0.494E-04 0.741E+01
   0.186E+02 -.217E-03 -.142E+04   -.257E+02 0.235E-03 0.144E+04   0.659E+01 -.138E-04 -.192E+02
   0.315E+02 -.260E-03 -.128E+04   -.356E+02 0.272E-03 0.129E+04   0.373E+01 -.106E-05 -.698E+01
   -.273E+02 0.103E+01 -.109E+04   0.323E+02 -.952E+00 0.109E+04   -.424E+01 0.178E-01 0.237E+01
   0.165E+02 -.222E+00 -.141E+04   -.231E+02 0.133E+01 0.144E+04   0.590E+01 -.107E+01 -.198E+02
   0.307E+02 -.108E+01 -.128E+04   -.353E+02 0.758E+00 0.129E+04   0.391E+01 0.792E+00 -.590E+01
   -.221E+02 -.265E-03 -.105E+04   0.260E+02 0.333E-03 0.105E+04   -.371E+01 -.185E-04 0.555E+01
 -----------------------------------------------------------------------------------------------
   -.139E+02 -.421E-04 0.670E+02   -.682E-12 -.611E-12 -.364E-11   0.156E+02 0.652E-04 -.608E+02


 POSITION                                       TOTAL-FORCE (eV/Angst)
 -----------------------------------------------------------------------------------
      8.28544      9.42362      6.72647         4.327028      0.003286      1.863831
      6.07316      7.53889      7.60262        -1.881347      0.002602     -2.075059
      3.16690      7.53889      6.72647         4.293226     -0.001881      1.841645
      0.95463      9.42362      7.60262        -1.923426     -0.003419     -2.079252
      9.68603      9.42464     10.26710        -0.002522      0.004651      0.004864
      7.45326      7.53543     11.06684         0.005433      0.001815      0.009919
      4.56022      7.53691     10.26296         0.004912      0.002593     -0.003072
      2.32529      9.42320     11.07957        -0.006255      0.007053      0.002095
      0.89325      9.42576     13.80891        -0.018616      0.010879      0.019467
      8.87301      7.53530     14.51254         0.022487      0.009834      0.098393
      5.99394      7.53688     13.78131         0.055046      0.034062      0.003476
      3.74190      9.42385     14.54843        -0.016320      0.038413      0.006332
      2.37690      9.41688     17.42086        -0.087611      0.043695      0.038627
      0.01950      7.52872     17.97344        -0.382062     -0.022459      0.248315
      7.47430      7.52844     17.32585         0.484807      0.103573      0.490903
      5.16763      9.43288     17.97718         0.015700      0.172062      0.051181
      8.28544      1.88472      6.72647         4.327026     -0.003286      1.863829
      6.07316      0.00000      7.60262        -1.903744      0.000000     -2.070649
      3.16690      0.00000      6.72647         4.317693      0.000000      1.855611
      0.95463      1.88472      7.60262        -1.923424      0.003420     -2.079252
      9.68603      1.88370     10.26710        -0.002519     -0.004655      0.004858
      7.44719     11.30834     11.07134         0.001093     -0.000002      0.009185
      4.56201      0.00000     10.26618         0.009481     -0.000004      0.004101
      2.32529      1.88514     11.07957        -0.006255     -0.007059      0.002089
      0.89325      1.88258     13.80891        -0.018619     -0.010883      0.019475
      8.86101     11.30834     14.52733         0.004321      0.000003      0.055590
      5.99975      0.00000     13.79596         0.027227     -0.000002      0.020422
      3.74190      1.88450     14.54844        -0.016321     -0.038415      0.006330
      2.37690      1.89146     17.42086        -0.087641     -0.043696      0.038620
      0.04164     11.30834     17.97262        -0.020129      0.000010      0.076280
      7.50362      0.00000     17.38916         0.061938      0.000033      0.072892
      5.16763      1.87546     17.97718         0.015794     -0.172012      0.051215
      8.28544      5.65417      6.72647         4.333283     -0.000000      1.856513
      6.07316      3.76945      7.60262        -1.881350     -0.002602     -2.075064
      3.16690      3.76945      6.72647         4.293228      0.001880      1.841645
      0.95463      5.65417      7.60262        -1.893554     -0.000000     -2.015029
      9.69792      5.65417     10.26287        -0.014487      0.000004     -0.004464
      7.45326      3.77291     11.06684         0.005432     -0.001810      0.009923
      4.56022      3.77143     10.26296         0.004910     -0.002591     -0.003070
      2.32855      5.65417     11.10594        -0.004877      0.000005     -0.043803
      0.91872      5.65417     13.81513        -0.095398      0.000005     -0.037477
      8.87301      3.77304     14.51254         0.022483     -0.009838      0.098406
      5.99394      3.77146     13.78131         0.055047     -0.034060      0.003479
      3.76047      5.65417     14.62731        -0.064587     -0.000001     -0.324785
      2.40788      5.65417     17.43410        -0.514005     -0.000002     -0.122316
      0.01950      3.77962     17.97344        -0.382133      0.022449      0.248358
      7.47430      3.77990     17.32585         0.484809     -0.103611      0.490962
      5.18787      5.65417     18.14177        -0.666713     -0.000041     -1.900645
      5.00124      7.53889      6.00000        -2.022734     -0.001916      1.185793
     10.11977      9.42362      6.00000        -2.015843      0.001861      1.180481
      9.35736      9.42362      8.32910        -1.093568      0.000765     -0.170361
      6.45110      9.42362      7.45294         0.401776     -0.002456     -0.091086
      7.90750      7.53889      6.87615         0.349225     -0.003578     -1.177864
      6.38921      7.53889      9.50461        -0.108625      0.000901      0.410768
      4.23883      7.53889      8.32910        -1.103805     -0.005085     -0.161295
      1.33257      7.53889      7.45294         0.414619      0.007857     -0.098387
      2.78896      9.42362      6.87615         0.361238     -0.003249     -1.180430
      1.27067      9.42362      9.50461        -0.013260     -0.001964      0.485511
      0.52630      9.42537     11.85461         0.001609     -0.000077     -0.007613
      7.84256      9.42304     10.94976         0.001681     -0.002123     -0.000561
      9.31016      7.53825     10.38983         0.002295     -0.004799      0.000562
      7.81161      7.52986     12.97778        -0.023280     -0.002859     -0.022485
      5.64076      7.53435     11.85070        -0.007061     -0.003846     -0.002618
      2.72202      7.53746     10.96375        -0.002302     -0.008688      0.002370
      4.18183      9.42251     10.38746        -0.000306     -0.003334     -0.000066
      2.69589      9.42099     12.99914         0.008098     -0.003847     -0.000660
      1.98766      9.42058     15.38308         0.010680     -0.005122     -0.020623
      9.26857      9.42457     14.42612         0.007727      0.000528     -0.014621
      0.52273      7.53732     13.90499         0.019100     -0.023302     -0.009098
      9.32964      7.55182     16.44324        -0.065827     -0.007910     -0.164555
      7.11821      7.56555     15.34340        -0.051559     -0.018670     -0.064487
      4.15592      7.53711     14.47523        -0.020542     -0.064619      0.024705
      5.61843      9.42347     13.89404        -0.008638     -0.014314     -0.002393
      4.19971      9.43494     16.47064         0.022385     -0.013018     -0.009671
      3.55954      9.42121     18.84878         0.030714     -0.016113     -0.011364
      0.53711      9.41668     18.19051         0.067249      0.050362     -0.035823
      1.97786      7.53528     17.45895         0.161442     -0.105073     -0.034091
      8.62469      7.47501     18.81526         0.194066      0.120470     -0.484853
      5.68421      7.55829     18.18205        -0.147893     -0.607166      0.305388
      7.10293      9.42674     17.39934        -0.069423     -0.004620     -0.015530
      5.00124      0.00000      6.00000        -2.020914     -0.000002      1.181414
     10.11977      1.88472      6.00000        -2.015838     -0.001861      1.180483
      9.35736      1.88472      8.32910        -1.093563     -0.000770     -0.170360
      6.45110      1.88472      7.45294         0.401769      0.002461     -0.091089
      7.90750      0.00000      6.87615         0.351503     -0.000004     -1.180038
      6.38921      0.00000      9.50461        -0.086962     -0.000001      0.417666
      4.23883      0.00000      8.32910        -1.102568     -0.000001     -0.170440
      1.33257      0.00000      7.45294         0.408872      0.000001     -0.091100
      2.78896      1.88472      6.87615         0.361235      0.003247     -1.180429
      1.27067      1.88472      9.50461        -0.013256      0.001965      0.485519
      0.52630      1.88297     11.85462         0.001609      0.000076     -0.007603
      7.84256      1.88530     10.94976         0.001679      0.002114     -0.000558
      9.30618     11.30834     10.38912         0.001140      0.000000     -0.002864
      7.80796      0.00000     12.98543        -0.011954      0.000001     -0.017786
      5.64083      0.00000     11.84968        -0.003264     -0.000002     -0.007559
      2.72219     11.30834     10.96133        -0.001413      0.000002     -0.000361
      4.18183      1.88583     10.38745        -0.000304      0.003339     -0.000065
      2.69589      1.88735     12.99914         0.008103      0.003851     -0.000652
      1.98766      1.88776     15.38308         0.010684      0.005124     -0.020640
      9.26857      1.88377     14.42613         0.007730     -0.000529     -0.014621
      0.51896     11.30834     13.90981         0.008764      0.000007     -0.006733
      9.32856     11.30834     16.45347        -0.026795      0.000001     -0.058131
      7.11076      0.00000     15.36004        -0.016438      0.000003     -0.041494
      4.14801      0.00000     14.45538        -0.007974      0.000011      0.000765
      5.61843      1.88487     13.89404        -0.008645      0.014323     -0.002389
      4.19971      1.87340     16.47064         0.022371      0.013025     -0.009722
      3.55954      1.88712     18.84879         0.030707      0.016114     -0.011334
      0.53711      1.89166     18.19051         0.067247     -0.050374     -0.035820
      1.98212      0.00000     17.45137         0.040417     -0.000011     -0.019778
      8.66831     11.30834     18.83400        -0.013546      0.000001     -0.057948
      5.68319      0.00000     18.20065        -0.050873      0.000001     -0.021022
      7.10294      1.88160     17.39935        -0.069433      0.004601     -0.015524
      5.00124      3.76945      6.00000        -2.022731      0.001917      1.185797
     10.11977      5.65417      6.00000        -2.030568      0.000003      1.169898
      9.35736      5.65417      8.32910        -1.104707      0.000000     -0.172628
      6.45110      5.65417      7.45294         0.399689     -0.000004     -0.090614
      7.90750      3.76945      6.87615         0.349222      0.003584     -1.177861
      6.38921      3.76945      9.50461        -0.108628     -0.000902      0.410768
      4.23883      3.76945      8.32910        -1.103799      0.005087     -0.161297
      1.33257      3.76945      7.45294         0.414616     -0.007860     -0.098387
      2.78896      5.65417      6.87615         0.365006      0.000003     -1.185555
      1.27067      5.65417      9.50461         0.062754      0.000001      0.632354
      0.53260      5.65417     11.86156         0.017449      0.000000      0.018922
      7.84441      5.65417     10.94219         0.002724      0.000009     -0.003700
      9.31016      3.77009     10.38983         0.002302      0.004801      0.000557
      7.81161      3.77848     12.97778        -0.023290      0.002859     -0.022468
      5.64076      3.77399     11.85070        -0.007070      0.003846     -0.002606
      2.72201      3.77088     10.96375        -0.002299      0.008686      0.002375
      4.18220      5.65417     10.38951        -0.006408     -0.000002      0.002847
      2.71008      5.65417     13.02635         0.063186     -0.000004      0.080960
      1.99325      5.65417     15.40390         0.113657     -0.000002      0.093174
      9.27425      5.65417     14.44091         0.022246     -0.000001     -0.019294
      0.52273      3.77103     13.90499         0.019104      0.023294     -0.009098
      9.32964      3.75653     16.44324        -0.065829      0.007910     -0.164581
      7.11821      3.74279     15.34341        -0.051564      0.018669     -0.064511
      4.15592      3.77123     14.47522        -0.020536      0.064604      0.024701
      5.63100      5.65417     13.92326        -0.040854     -0.000009      0.027375
      4.21581      5.65417     16.54548         0.389956     -0.000003      0.743477
      3.53602      5.65417     18.90488         0.499234      0.000002      0.295415
      0.53684      5.65417     18.18656         0.188276      0.000011     -0.078623
      1.97786      3.77306     17.45895         0.161454      0.105093     -0.034094
      8.62469      3.83334     18.81526         0.194113     -0.120480     -0.484915
      5.68422      3.75005     18.18207        -0.147913      0.607130      0.305349
      7.06940      5.65417     17.29872        -0.366608      0.000048      0.456540
 -----------------------------------------------------------------------------------
    total drift:                                0.038385      0.000028      0.036061


--------------------------------------------------------------------------------------------------------



  FREE ENERGIE OF THE ION-ELECTRON SYSTEM (eV)
  ---------------------------------------------------
  free  energy   TOTEN  =     -1571.30432313 eV

  energy  without entropy=    -1571.30432313  energy(sigma->0) =    -1571.30432313



--------------------------------------------------------------------------------------------------------


    POTLOK:  cpu time      0.8685: real time      0.8689


--------------------------------------------------------------------------------------------------------


     LOOP+:  cpu time   5414.1214: real time   5418.1600
    4ORBIT:  cpu time      0.0000: real time      0.0000

 total amount of memory used by VASP MPI-rank0   522722. kBytes
=======================================================================

   base      :      30000. kBytes
   nonl-proj :     136347. kBytes
   fftplans  :      15318. kBytes
   grid      :      12800. kBytes
   one-center:        777. kBytes
   HF        :         90. kBytes
   nonlr-proj:      43343. kBytes
   wavefun   :       9582. kBytes
   fock_wrk  :     274465. kBytes

  
  
 General timing and accounting informations for this job:
 ========================================================
  
                  Total CPU time used (sec):     5504.754
                            User time (sec):     5484.214
                          System time (sec):       20.540
                         Elapsed time (sec):     5522.709
  
                   Maximum memory used (kb):     1120820.
                   Average memory used (kb):          N/A
  
                          Minor page faults:      1236067
                          Major page faults:         1198
                 Voluntary context switches:        27037
