 vasp.6.3.0 20Jan22 (build Mar 11 2022 13:48:16) complex                        
  
 executed on             LinuxIFC date 2023.12.26  17:55:11
 running on  304 total cores
 distrk:  each k-point on  304 cores,    1 groups
 distr:  one band on NCORE=   2 cores,  152 groups


--------------------------------------------------------------------------------------------------------


 INCAR:
   SYSTEM = MgO-rocksalt
   ISMEAR = 0
   SIGMA = 0.05
   EDIFF = 1E-6
   ALGO = ALL
   ISTART = 0
   IBRION = -1
   NSW = 0
   ISYM = 0
   DIPOL = 0.5 0.5 0.5
   IDIPOL = 3
   LDIPOL = .TRUE.
   GGA = MK
   LUSE_VDW = .TRUE.
   PARAM1 = 0.1234
   PARAM2 = 0.711357
   ZAB_VDW = -1.8867
   AGGAC = 0.0
   ENCUT = 520
   PREC = Accurate
   LASPH = .TRUE.
   LREAL = Auto
   ISPIN = 1
   NELM = 200
   NELMIN = 8
   NCORE = 2
   KPAR = 1
   LWAVE = .FALSE.
   LCHARG = .FALSE.

 POTCAR:    PAW_PBE C 08Apr2002                   
 POTCAR:    PAW_PBE H 15Jun2001                   
 POTCAR:    PAW_PBE Mg_pv 13Apr2007               
 POTCAR:    PAW_PBE O 08Apr2002                   
 -----------------------------------------------------------------------------
|                                                                             |
|           W    W    AA    RRRRR   N    N  II  N    N   GGGG   !!!           |
|           W    W   A  A   R    R  NN   N  II  NN   N  G    G  !!!           |
|           W    W  A    A  R    R  N N  N  II  N N  N  G       !!!           |
|           W WW W  AAAAAA  RRRRR   N  N N  II  N  N N  G  GGG   !            |
|           WW  WW  A    A  R   R   N   NN  II  N   NN  G    G                |
|           W    W  A    A  R    R  N    N  II  N    N   GGGG   !!!           |
|                                                                             |
|     For optimal performance we recommend to set                             |
|       NCORE = 2 up to number-of-cores-per-socket                            |
|     NCORE specifies how many cores store one orbital (NPAR=cpu/NCORE).      |
|     This setting can greatly improve the performance of VASP for DFT.       |
|     The default, NCORE=1 might be grossly inefficient on modern             |
|     multi-core architectures or massively parallel machines. Do your        |
|     own testing! More info at https://www.vasp.at/wiki/index.php/NCORE      |
|     Unfortunately you need to use the default for GW and RPA                |
|     calculations (for HF NCORE is supported but not extensively tested      |
|     yet).                                                                   |
|                                                                             |
 -----------------------------------------------------------------------------

 -----------------------------------------------------------------------------
|                                                                             |
|               ----> ADVICE to this user running VASP <----                  |
|                                                                             |
|     You have switched on vdW-DFT.                                           |
|     This routine was written and supplied by Jiri Klimes. We recommend      |
|     that you carefully read and cite the following publications:            |
|       J. Klimes, D.R. Bowler, A. Michelides                                 |
|          J. Phys.: Cond Matt. 22 022201 (2010)                              |
|       J. Klimes, D.R. Bowler, A. Michelides                                 |
|          Phys. Rev. B. 83, 195131 (2011)                                    |
|     and references therein.                                                 |
|                                                                             |
 -----------------------------------------------------------------------------

 POTCAR:    PAW_PBE C 08Apr2002                   
   SHA256 =  253f7b50bb8d59471dbedb8285d89021f4a42ed1a2c5d38a03a736e69125dd95 C/POTCAR              
   COPYR  = (c) Copyright 08Apr2002 Georg Kresse                                                    
   COPYR  = This file is part of the software VASP. Any use, copying, and all other rights are regul
   COPYR  = If you do not have a valid VASP license, you may not use, copy or distribute this file. 
   VRHFIN =C: s2p2                                                                                  
   LEXCH  = PE                                                                                      
   EATOM  =   147.1560 eV,   10.8157 Ry                                                             
                                                                                                    
   TITEL  = PAW_PBE C 08Apr2002                                                                     
   LULTRA =        F    use ultrasoft PP ?                                                          
   IUNSCR =        1    unscreen: 0-lin 1-nonlin 2-no                                               
   RPACOR =    1.200    partial core radius                                                         
   POMASS =   12.011; ZVAL   =    4.000    mass and valenz                                          
   RCORE  =    1.500    outmost cutoff radius                                                       
   RWIGS  =    1.630; RWIGS  =    0.863    wigner-seitz radius (au A)                               
   ENMAX  =  400.000; ENMIN  =  300.000 eV                                                          
   ICORE  =        2    local potential                                                             
   LCOR   =        T    correct aug charges                                                         
   LPAW   =        T    paw PP                                                                      
   EAUG   =  644.873                                                                                
   DEXC   =    0.000                                                                                
   RMAX   =    1.529    core radius for proj-oper                                                   
   RAUG   =    1.300    factor for augmentation sphere                                              
   RDEP   =    1.501    radius for radial grids                                                     
   RDEPT  =    1.300    core radius for aug-charge                                                  
                                                                                                    
   Atomic configuration                                                                             
    4 entries                                                                                       
     n  l   j            E        occ.                                                              
     1  0  0.50      -273.3789   2.0000                                                             
     2  0  0.50       -13.7508   2.0000                                                             
     2  1  0.50        -5.2854   2.0000                                                             
     3  2  1.50        -5.4423   0.0000                                                             
   Description                                                                                      
     l       E           TYP  RCUT    TYP  RCUT                                                     
     0    -13.7508458     23  1.200                                                                 
     0     -8.2022199     23  1.200                                                                 
     1     -5.2854383     23  1.500                                                                 
     1     34.0145650     23  1.500                                                                 
     2     -5.4423304      7  1.500                                                                 
  local pseudopotential read in
  partial core-charges read in
  partial kinetic energy density read in
  atomic valenz-charges read in
  non local Contribution for L=           0  read in
    real space projection operators read in
  non local Contribution for L=           0  read in
    real space projection operators read in
  non local Contribution for L=           1  read in
    real space projection operators read in
  non local Contribution for L=           1  read in
    real space projection operators read in
    PAW grid and wavefunctions read in
 
   number of l-projection  operators is LMAX  =           4
   number of lm-projection operators is LMMAX =           8
 
 POTCAR:    PAW_PBE H 15Jun2001                   
   SHA256 =  030f79b5d3ab3cf0e668861823c8fb652ff669f3e15e46930bd03bfd63a607b6 H/POTCAR              
   COPYR  = (c) Copyright 15Jun2001 Georg Kresse                                                    
   COPYR  = This file is part of the software VASP. Any use, copying, and all other rights are regul
   COPYR  = If you do not have a valid VASP license, you may not use, copy or distribute this file. 
   VRHFIN =H: ultrasoft test                                                                        
   LEXCH  = PE                                                                                      
   EATOM  =    12.4884 eV,    0.9179 Ry                                                             
                                                                                                    
   TITEL  = PAW_PBE H 15Jun2001                                                                     
   LULTRA =        F    use ultrasoft PP ?                                                          
   IUNSCR =        0    unscreen: 0-lin 1-nonlin 2-no                                               
   RPACOR =    0.000    partial core radius                                                         
   POMASS =    1.000; ZVAL   =    1.000    mass and valenz                                          
   RCORE  =    1.100    outmost cutoff radius                                                       
   RWIGS  =    0.700; RWIGS  =    0.370    wigner-seitz radius (au A)                               
   ENMAX  =  250.000; ENMIN  =  200.000 eV                                                          
   RCLOC  =    0.701    cutoff for local pot                                                        
   LCOR   =        T    correct aug charges                                                         
   LPAW   =        T    paw PP                                                                      
   EAUG   =  400.000                                                                                
   RMAX   =    1.123    core radius for proj-oper                                                   
   RAUG   =    1.200    factor for augmentation sphere                                              
   RDEP   =    1.112    radius for radial grids                                                     
   RDEPT  =    0.926    core radius for aug-charge                                                  
                                                                                                    
   Atomic configuration                                                                             
    2 entries                                                                                       
     n  l   j            E        occ.                                                              
     1  0  0.50        -6.4927   1.0000                                                             
     2  1  0.50        -3.4015   0.0000                                                             
   Description                                                                                      
     l       E           TYP  RCUT    TYP  RCUT                                                     
     0     -6.4927494     23  1.100                                                                 
     0      6.8029130     23  1.100                                                                 
     1     -4.0817478     23  1.100                                                                 
  local pseudopotential read in
  atomic valenz-charges read in
  non local Contribution for L=           0  read in
    real space projection operators read in
  non local Contribution for L=           0  read in
    real space projection operators read in
  non local Contribution for L=           1  read in
    real space projection operators read in
    PAW grid and wavefunctions read in
 
   number of l-projection  operators is LMAX  =           3
   number of lm-projection operators is LMMAX =           5
 
 POTCAR:    PAW_PBE Mg_pv 13Apr2007               
   SHA256 =  f474ac0dd33840b9ae76c01d57fea79fdf77cdfbb07d5ade72c65f83c709b62b Mg_pv/POTCAR          
   COPYR  = (c) Copyright 13Apr2007 Georg Kresse                                                    
   COPYR  = This file is part of the software VASP. Any use, copying, and all other rights are regul
   COPYR  = If you do not have a valid VASP license, you may not use, copy or distribute this file. 
   VRHFIN =Mg: p6s2                                                                                 
   LEXCH  = PE                                                                                      
   EATOM  =  1056.7344 eV,   77.6678 Ry                                                             
                                                                                                    
   TITEL  = PAW_PBE Mg_pv 13Apr2007                                                                 
   LULTRA =        F    use ultrasoft PP ?                                                          
   IUNSCR =        1    unscreen: 0-lin 1-nonlin 2-no                                               
   RPACOR =    1.500    partial core radius                                                         
   POMASS =   24.305; ZVAL   =    8.000    mass and valenz                                          
   RCORE  =    2.000    outmost cutoff radius                                                       
   RWIGS  =    2.000; RWIGS  =    1.058    wigner-seitz radius (au A)                               
   ENMAX  =  403.929; ENMIN  =  302.947 eV                                                          
   RCLOC  =    1.506    cutoff for local pot                                                        
   LCOR   =        T    correct aug charges                                                         
   LPAW   =        T    paw PP                                                                      
   EAUG   =  758.780                                                                                
   DEXC   =    0.000                                                                                
   RMAX   =    2.045    core radius for proj-oper                                                   
   RAUG   =    1.300    factor for augmentation sphere                                              
   RDEP   =    2.025    radius for radial grids                                                     
   RDEPT  =    1.557    core radius for aug-charge                                                  
                                                                                                    
   Atomic configuration                                                                             
    5 entries                                                                                       
     n  l   j            E        occ.                                                              
     1  0  0.50     -1259.6230   2.0000                                                             
     2  0  0.50       -79.8442   2.0000                                                             
     2  1  1.50       -46.6121   6.0000                                                             
     3  0  0.50        -4.7055   2.0000                                                             
     3  2  1.50        -1.3606   0.0000                                                             
   Description                                                                                      
     l       E           TYP  RCUT    TYP  RCUT                                                     
     1    -46.6121073     23  1.600                                                                 
     1      2.7211652     23  1.600                                                                 
     0     -4.7054661     23  2.000                                                                 
     0     61.2262170     23  2.000                                                                 
     2     -1.3605826     23  2.000                                                                 
  local pseudopotential read in
  partial core-charges read in
  partial kinetic energy density read in
  atomic valenz-charges read in
  non local Contribution for L=           1  read in
    real space projection operators read in
  non local Contribution for L=           1  read in
    real space projection operators read in
  non local Contribution for L=           0  read in
    real space projection operators read in
  non local Contribution for L=           0  read in
    real space projection operators read in
  non local Contribution for L=           2  read in
    real space projection operators read in
    PAW grid and wavefunctions read in
 
   number of l-projection  operators is LMAX  =           5
   number of lm-projection operators is LMMAX =          13
 
 POTCAR:    PAW_PBE O 08Apr2002                   
   SHA256 =  818f92134a0a090dccd8ba1447fa70422a3b330e708bb4f08108d8ae51209ddf O/POTCAR              
   COPYR  = (c) Copyright 08Apr2002 Georg Kresse                                                    
   COPYR  = This file is part of the software VASP. Any use, copying, and all other rights are regul
   COPYR  = If you do not have a valid VASP license, you may not use, copy or distribute this file. 
   VRHFIN =O: s2p4                                                                                  
   LEXCH  = PE                                                                                      
   EATOM  =   432.3788 eV,   31.7789 Ry                                                             
                                                                                                    
   TITEL  = PAW_PBE O 08Apr2002                                                                     
   LULTRA =        F    use ultrasoft PP ?                                                          
   IUNSCR =        1    unscreen: 0-lin 1-nonlin 2-no                                               
   RPACOR =    1.200    partial core radius                                                         
   POMASS =   16.000; ZVAL   =    6.000    mass and valenz                                          
   RCORE  =    1.520    outmost cutoff radius                                                       
   RWIGS  =    1.550; RWIGS  =    0.820    wigner-seitz radius (au A)                               
   ENMAX  =  400.000; ENMIN  =  300.000 eV                                                          
   ICORE  =        2    local potential                                                             
   LCOR   =        T    correct aug charges                                                         
   LPAW   =        T    paw PP                                                                      
   EAUG   =  605.392                                                                                
   DEXC   =    0.000                                                                                
   RMAX   =    1.553    core radius for proj-oper                                                   
   RAUG   =    1.300    factor for augmentation sphere                                              
   RDEP   =    1.550    radius for radial grids                                                     
   RDEPT  =    1.329    core radius for aug-charge                                                  
                                                                                                    
   Atomic configuration                                                                             
    4 entries                                                                                       
     n  l   j            E        occ.                                                              
     1  0  0.50      -514.6923   2.0000                                                             
     2  0  0.50       -23.9615   2.0000                                                             
     2  1  0.50        -9.0305   4.0000                                                             
     3  2  1.50        -9.5241   0.0000                                                             
   Description                                                                                      
     l       E           TYP  RCUT    TYP  RCUT                                                     
     0    -23.9615318     23  1.200                                                                 
     0     -9.5240782     23  1.200                                                                 
     1     -9.0304911     23  1.520                                                                 
     1      8.1634956     23  1.520                                                                 
     2     -9.5240782      7  1.500                                                                 
  local pseudopotential read in
  partial core-charges read in
  partial kinetic energy density read in
  kinetic energy density of atom read in
  atomic valenz-charges read in
  non local Contribution for L=           0  read in
    real space projection operators read in
  non local Contribution for L=           0  read in
    real space projection operators read in
  non local Contribution for L=           1  read in
    real space projection operators read in
  non local Contribution for L=           1  read in
    real space projection operators read in
    PAW grid and wavefunctions read in
 
   number of l-projection  operators is LMAX  =           4
   number of lm-projection operators is LMMAX =           8
 
 Optimization of the real space projectors (new method)

 maximal supplied QI-value         = 25.13
 optimisation between [QCUT,QGAM] = [ 11.56, 23.12] = [ 37.43,149.72] Ry 
 Optimized for a Real-space Cutoff    1.04 Angstroem

   l    n(q)    QCUT    max X(q) W(low)/X(q) W(high)/X(q)  e(spline) 
   0      7    11.561   115.676    0.20E-03    0.60E-03    0.21E-06
   0      7    11.561    87.132    0.20E-03    0.59E-03    0.21E-06
   1      7    11.561     4.429    0.23E-03    0.35E-03    0.15E-06
   1      7    11.561     2.733    0.18E-03    0.25E-03    0.12E-06
 Optimization of the real space projectors (new method)

 maximal supplied QI-value         = 34.20
 optimisation between [QCUT,QGAM] = [ 11.63, 23.26] = [ 37.87,151.49] Ry 
 Optimized for a Real-space Cutoff    1.21 Angstroem

   l    n(q)    QCUT    max X(q) W(low)/X(q) W(high)/X(q)  e(spline) 
   0      8    11.629    19.460    0.17E-03    0.34E-03    0.21E-06
   0      8    11.629    12.209    0.16E-03    0.33E-03    0.21E-06
   1      8    11.629     4.655    0.18E-03    0.16E-03    0.26E-06
 Optimization of the real space projectors (new method)

 maximal supplied QI-value         = 18.90
 optimisation between [QCUT,QGAM] = [ 11.53, 23.24] = [ 37.21,151.29] Ry 
 Optimized for a Real-space Cutoff    1.28 Angstroem

   l    n(q)    QCUT    max X(q) W(low)/X(q) W(high)/X(q)  e(spline) 
   1      8    11.527     2.974    0.44E-04    0.56E-04    0.12E-06
   1      8    11.527     4.279    0.12E-03    0.12E-03    0.26E-06
   0      9    11.527    16.381    0.46E-04    0.64E-04    0.78E-07
   0      9    11.527     5.611    0.26E-04    0.43E-04    0.55E-07
   2      8    11.527     4.652    0.22E-03    0.72E-04    0.47E-07
 Optimization of the real space projectors (new method)

 maximal supplied QI-value         = 24.76
 optimisation between [QCUT,QGAM] = [ 11.64, 23.27] = [ 37.91,151.63] Ry 
 Optimized for a Real-space Cutoff    1.14 Angstroem

   l    n(q)    QCUT    max X(q) W(low)/X(q) W(high)/X(q)  e(spline) 
   0      8    11.635    20.381    0.10E-03    0.33E-03    0.24E-06
   0      8    11.635    15.268    0.11E-03    0.35E-03    0.26E-06
   1      7    11.635     5.964    0.24E-03    0.31E-03    0.30E-06
   1      7    11.635     5.382    0.22E-03    0.25E-03    0.26E-06
 -----------------------------------------------------------------------------
|                                                                             |
|               ----> ADVICE to this user running VASP <----                  |
|                                                                             |
|     You enforced a specific xc type in the INCAR file but a different       |
|     type was found in the POTCAR file.                                      |
|     I HOPE YOU KNOW WHAT YOU ARE DOING!                                     |
|                                                                             |
 -----------------------------------------------------------------------------

  PAW_PBE C 08Apr2002                   :
 energy of atom  1       EATOM= -147.1560
 kinetic energy error for atom=    0.0071 (will be added to EATOM!!)
  PAW_PBE H 15Jun2001                   :
 energy of atom  2       EATOM=  -12.4884
 kinetic energy error for atom=    0.0014 (will be added to EATOM!!)
  PAW_PBE Mg_pv 13Apr2007               :
 energy of atom  3       EATOM=-1056.7344
 kinetic energy error for atom=    0.0340 (will be added to EATOM!!)
  PAW_PBE O 08Apr2002                   :
 energy of atom  4       EATOM= -432.3788
 kinetic energy error for atom=    0.0208 (will be added to EATOM!!)
 
 
 POSCAR:  C  H Mg  O
  positions in direct lattice
  No initial velocities read in
 exchange correlation table for  LEXCH =       43
   RHO(1)=    0.500       N(1)  =     2000
   RHO(2)=  100.500       N(2)  =     4000
 


--------------------------------------------------------------------------------------------------------


 ion  position               nearest neighbor table
   1  0.478  0.468  0.808-   7 1.09   2 1.40   6 1.40
   2  0.559  0.458  0.807-   8 1.09   1 1.40   3 1.40
   3  0.591  0.382  0.809-   9 1.09   4 1.40   2 1.40
   4  0.542  0.317  0.812-  10 1.09   3 1.40   5 1.40
   5  0.461  0.327  0.813-  11 1.09   6 1.40   4 1.40
   6  0.428  0.402  0.811-  12 1.09   5 1.40   1 1.40
   7  0.453  0.526  0.806-   1 1.09
   8  0.597  0.509  0.804-   2 1.09
   9  0.655  0.375  0.808-   3 1.09
  10  0.567  0.258  0.813-   4 1.09
  11  0.422  0.276  0.815-   5 1.09
  12  0.365  0.410  0.812-   6 1.09
  13  0.000  0.375  0.350- 141 2.14 144 2.14 151 2.14 175 2.14 224 2.14
  14  0.125  0.000  0.350- 142 2.14 143 2.14 152 2.14 159 2.14 176 2.14
  15  0.000  0.000  0.450- 143 2.14 142 2.14 149 2.14 173 2.14 222 2.14 147 2.14
  16  0.125  0.375  0.450- 144 2.14 141 2.14 150 2.14 157 2.14 174 2.14 148 2.14
  17  0.000  0.375  0.550- 179 2.14 155 2.14 228 2.14 148 2.14 141 2.14 145 2.16
  18  0.125  0.000  0.550- 163 2.14 156 2.14 180 2.14 147 2.14 142 2.14 146 2.16
  19  0.000  0.000  0.649- 147 2.12 146 2.14 226 2.14 177 2.14 153 2.14
  20  0.125  0.375  0.649- 148 2.12 154 2.14 178 2.14 161 2.14 145 2.14
  21  0.000  0.125  0.350- 149 2.14 143 2.14 151 2.14 152 2.14 232 2.14
  22  0.125  0.250  0.350- 150 2.14 144 2.14 151 2.14 152 2.14 167 2.14
  23  0.000  0.250  0.450- 151 2.14 149 2.14 150 2.14 141 2.14 230 2.14 155 2.14
  24  0.125  0.125  0.450- 152 2.14 149 2.14 150 2.14 142 2.14 165 2.14 156 2.14
  25  1.000  0.125  0.550- 155 2.14 236 2.14 156 2.14 147 2.14 149 2.14 153 2.16
  26  0.125  0.250  0.550- 171 2.14 148 2.14 156 2.14 155 2.14 150 2.14 154 2.16
  27  1.000  0.250  0.649- 155 2.12 153 2.14 145 2.14 234 2.14 154 2.14
  28  0.125  0.125  0.649- 156 2.12 169 2.14 154 2.14 153 2.14 146 2.14
  29  0.250  0.375  0.350- 157 2.14 144 2.14 160 2.14 167 2.14 191 2.14
  30  0.375  0.000  0.350- 158 2.14 159 2.14 168 2.14 192 2.14 207 2.14
  31  0.250  0.000  0.450- 159 2.14 158 2.14 142 2.14 165 2.14 189 2.14 163 2.14
  32  0.375  0.375  0.450- 164 2.13 160 2.14 157 2.14 166 2.14 190 2.14 205 2.14
  33  0.250  0.375  0.550- 164 2.13 195 2.14 171 2.14 148 2.14 157 2.14 161 2.17
  34  0.375  0.000  0.550- 172 2.14 211 2.14 163 2.14 196 2.14 158 2.14 162 2.16
  35  0.250  0.000  0.649- 163 2.12 169 2.14 162 2.14 193 2.14 146 2.14
  36  0.375  0.375  0.649- 164 2.13 209 2.13 194 2.14 170 2.14 161 2.14
  37  0.250  0.125  0.350- 165 2.14 159 2.14 152 2.14 167 2.14 168 2.14
  38  0.375  0.250  0.350- 166 2.14 160 2.14 167 2.14 168 2.14 215 2.14
  39  0.250  0.250  0.450- 167 2.14 157 2.14 165 2.14 166 2.14 150 2.14 171 2.14
  40  0.375  0.125  0.450- 168 2.14 165 2.14 166 2.14 158 2.14 213 2.14 172 2.14
  41  0.250  0.125  0.550- 171 2.14 172 2.14 156 2.14 163 2.14 165 2.14 169 2.16
  42  0.375  0.250  0.550- 164 2.13 219 2.14 171 2.14 172 2.14 166 2.14 170 2.16
  43  0.250  0.250  0.649- 171 2.12 170 2.13 161 2.14 169 2.14 154 2.14
  44  0.375  0.125  0.649- 172 2.12 170 2.13 217 2.14 169 2.14 162 2.14
  45  0.000  0.875  0.350- 173 2.14 143 2.14 176 2.14 183 2.14 256 2.14
  46  0.125  0.500  0.350- 174 2.14 144 2.14 175 2.14 184 2.14 191 2.14
  47  0.000  0.500  0.450- 175 2.14 174 2.14 141 2.14 181 2.14 254 2.14 179 2.14
  48  0.125  0.875  0.450- 176 2.14 173 2.14 142 2.14 182 2.14 189 2.14 180 2.14
  49  0.000  0.875  0.550- 260 2.14 187 2.14 147 2.14 180 2.14 173 2.14 177 2.16
  50  0.125  0.500  0.550- 195 2.13 148 2.14 179 2.14 188 2.14 174 2.14 178 2.16
  51  1.000  0.500  0.649- 179 2.12 145 2.14 185 2.14 258 2.14 178 2.14
  52  0.125  0.875  0.649- 180 2.12 186 2.14 146 2.14 177 2.14 193 2.14
  53  0.000  0.625  0.350- 181 2.14 175 2.14 183 2.14 184 2.14 264 2.14
  54  0.125  0.750  0.350- 182 2.14 176 2.14 183 2.14 184 2.14 199 2.14
  55  0.000  0.750  0.450- 183 2.14 181 2.14 182 2.14 173 2.14 262 2.14 187 2.14
  56  0.125  0.625  0.450- 184 2.14 181 2.14 182 2.14 174 2.14 197 2.14 188 2.14
  57  0.000  0.625  0.550- 268 2.14 188 2.14 179 2.14 187 2.14 181 2.14 185 2.16
  58  0.125  0.750  0.550- 188 2.14 203 2.14 187 2.14 180 2.14 182 2.14 186 2.16
  59  0.000  0.750  0.649- 187 2.12 266 2.14 177 2.14 186 2.14 185 2.14
  60  0.125  0.625  0.649- 188 2.12 201 2.14 178 2.14 186 2.14 185 2.14
  61  0.250  0.875  0.350- 189 2.14 176 2.14 159 2.14 192 2.14 199 2.14
  62  0.375  0.500  0.350- 190 2.14 160 2.14 191 2.14 200 2.14 239 2.14
  63  0.250  0.500  0.450- 191 2.14 174 2.14 190 2.14 157 2.14 197 2.14 195 2.14
  64  0.375  0.875  0.450- 192 2.14 189 2.14 158 2.14 198 2.14 237 2.14 196 2.14
  65  0.250  0.875  0.550- 196 2.14 203 2.14 163 2.14 180 2.14 189 2.14 193 2.16
  66  0.375  0.500  0.550- 243 2.13 164 2.14 204 2.14 195 2.14 190 2.14 194 2.16
  67  0.250  0.500  0.649- 195 2.12 194 2.13 161 2.14 201 2.14 178 2.14
  68  0.375  0.875  0.649- 196 2.12 193 2.14 241 2.14 202 2.14 162 2.14
  69  0.250  0.625  0.350- 197 2.14 191 2.14 184 2.14 199 2.14 200 2.14
  70  0.375  0.750  0.350- 198 2.14 192 2.14 199 2.14 200 2.14 247 2.14
  71  0.250  0.750  0.450- 199 2.14 189 2.14 197 2.14 198 2.14 182 2.14 203 2.14
  72  0.375  0.625  0.450- 200 2.14 197 2.14 198 2.14 190 2.14 245 2.14 204 2.14
  73  0.250  0.625  0.550- 195 2.14 204 2.14 188 2.14 203 2.14 197 2.14 201 2.16
  74  0.375  0.750  0.550- 204 2.13 251 2.14 196 2.14 203 2.14 198 2.14 202 2.16
  75  0.250  0.750  0.649- 203 2.12 201 2.14 202 2.14 193 2.14 186 2.14
  76  0.375  0.625  0.649- 204 2.12 194 2.13 249 2.14 201 2.14 202 2.14
  77  0.500  0.375  0.350- 205 2.14 160 2.14 208 2.14 215 2.14 239 2.14
  78  0.625  0.000  0.350- 206 2.14 207 2.14 216 2.14 223 2.14 240 2.14
  79  0.500  0.000  0.450- 207 2.14 206 2.14 158 2.14 213 2.14 237 2.14 211 2.14
  80  0.625  0.375  0.450- 212 2.13 208 2.14 205 2.14 214 2.14 221 2.14 238 2.14
  81  0.500  0.375  0.550- 209 2.13 243 2.14 212 2.14 164 2.14 219 2.14 205 2.14
  82  0.625  0.000  0.550- 220 2.14 211 2.14 244 2.14 227 2.14 206 2.14 210 2.16
  83  0.500  0.000  0.649- 211 2.12 162 2.14 210 2.14 217 2.14 241 2.14
  84  0.625  0.375  0.649- 209 2.13 212 2.13 242 2.14 218 2.14 225 2.14
  85  0.500  0.125  0.350- 213 2.14 207 2.14 168 2.14 215 2.14 216 2.14
  86  0.625  0.250  0.350- 214 2.14 208 2.14 215 2.14 216 2.14 231 2.14
  87  0.500  0.250  0.450- 219 2.14 215 2.14 213 2.14 214 2.14 166 2.14 205 2.14
  88  0.625  0.125  0.450- 216 2.14 213 2.14 214 2.14 206 2.14 229 2.14 220 2.14
  89  0.500  0.125  0.550- 219 2.13 220 2.14 172 2.14 211 2.14 213 2.14 217 2.17
  90  0.625  0.250  0.550- 212 2.13 219 2.14 235 2.14 220 2.14 214 2.14 218 2.16
  91  0.500  0.250  0.649- 219 2.13 209 2.13 218 2.14 170 2.14 217 2.14
  92  0.625  0.125  0.649- 220 2.12 218 2.13 217 2.14 233 2.14 210 2.14
  93  0.750  0.375  0.350- 221 2.14 208 2.14 224 2.14 231 2.14 255 2.14
  94  0.875  0.000  0.350- 222 2.14 143 2.14 223 2.14 232 2.14 256 2.14
  95  0.750  0.000  0.450- 223 2.14 222 2.14 206 2.14 229 2.14 253 2.14 227 2.14
  96  0.875  0.375  0.450- 224 2.14 221 2.14 141 2.14 230 2.14 254 2.14 228 2.14
  97  0.750  0.375  0.550- 212 2.13 235 2.14 259 2.14 228 2.14 221 2.14 225 2.17
  98  0.875  0.000  0.550- 227 2.14 236 2.14 260 2.14 147 2.14 222 2.14 226 2.16
  99  0.750  0.000  0.649- 227 2.12 233 2.14 210 2.14 226 2.14 257 2.14
 100  0.875  0.375  0.649- 228 2.12 225 2.14 234 2.14 258 2.14 145 2.14
 101  0.750  0.125  0.350- 229 2.14 223 2.14 216 2.14 231 2.14 232 2.14
 102  0.875  0.250  0.350- 230 2.14 224 2.14 151 2.14 231 2.14 232 2.14
 103  0.750  0.250  0.450- 231 2.14 221 2.14 229 2.14 230 2.14 214 2.14 235 2.14
 104  0.875  0.125  0.450- 232 2.14 222 2.14 229 2.14 230 2.14 149 2.14 236 2.14
 105  0.750  0.125  0.550- 220 2.14 235 2.14 227 2.14 236 2.14 229 2.14 233 2.16
 106  0.875  0.250  0.550- 235 2.14 228 2.14 155 2.14 236 2.14 230 2.14 234 2.16
 107  0.750  0.250  0.649- 235 2.12 218 2.13 225 2.14 233 2.14 234 2.14
 108  0.875  0.125  0.649- 236 2.12 233 2.14 234 2.14 153 2.14 226 2.14
 109  0.500  0.875  0.350- 237 2.14 207 2.14 192 2.14 240 2.14 247 2.14
 110  0.625  0.500  0.350- 238 2.14 208 2.14 239 2.14 248 2.14 255 2.14
 111  0.500  0.500  0.450- 243 2.13 239 2.14 238 2.14 190 2.14 205 2.14 245 2.14
 112  0.625  0.875  0.450- 240 2.14 237 2.14 206 2.14 246 2.14 253 2.14 244 2.14
 113  0.500  0.875  0.550- 244 2.14 196 2.14 251 2.14 211 2.14 237 2.14 241 2.16
 114  0.625  0.500  0.550- 243 2.14 212 2.14 252 2.14 259 2.14 238 2.14 242 2.15
 115  0.500  0.500  0.649- 209 2.13 243 2.13 242 2.14 194 2.14 249 2.14
 116  0.625  0.875  0.649- 244 2.12 241 2.14 257 2.14 250 2.14 210 2.14
 117  0.500  0.625  0.350- 245 2.14 239 2.14 200 2.14 247 2.14 248 2.14
 118  0.625  0.750  0.350- 246 2.14 240 2.14 247 2.14 248 2.14 263 2.14
 119  0.500  0.750  0.450- 247 2.14 237 2.14 245 2.14 246 2.14 198 2.14 251 2.14
 120  0.625  0.625  0.450- 252 2.14 248 2.14 246 2.14 238 2.14 245 2.14 261 2.14
 121  0.500  0.625  0.550- 243 2.13 204 2.14 252 2.14 251 2.14 245 2.14 249 2.17
 122  0.625  0.750  0.550- 252 2.13 251 2.14 244 2.14 267 2.14 246 2.14 250 2.16
 123  0.500  0.750  0.649- 251 2.12 249 2.14 202 2.14 250 2.14 241 2.14
 124  0.625  0.625  0.649- 252 2.12 242 2.13 249 2.14 265 2.14 250 2.14
 125  0.750  0.875  0.350- 253 2.14 240 2.14 223 2.14 256 2.14 263 2.14
 126  0.875  0.500  0.350- 254 2.14 224 2.14 175 2.14 255 2.14 264 2.14
 127  0.750  0.500  0.450- 259 2.14 255 2.14 254 2.14 221 2.14 238 2.14 261 2.14
 128  0.875  0.875  0.450- 256 2.14 222 2.14 253 2.14 173 2.14 262 2.14 260 2.14
 129  0.750  0.875  0.550- 227 2.14 267 2.14 244 2.14 260 2.14 253 2.14 257 2.16
 130  0.875  0.500  0.550- 259 2.13 228 2.14 179 2.14 268 2.14 254 2.14 258 2.16
 131  0.750  0.500  0.649- 259 2.12 242 2.13 225 2.14 265 2.14 258 2.14
 132  0.875  0.875  0.649- 260 2.12 266 2.14 177 2.14 226 2.14 257 2.14
 133  0.750  0.625  0.350- 261 2.14 255 2.14 248 2.14 263 2.14 264 2.14
 134  0.875  0.750  0.350- 262 2.14 256 2.14 183 2.14 263 2.14 264 2.14
 135  0.750  0.750  0.450- 263 2.14 253 2.14 261 2.14 262 2.14 246 2.14 267 2.14
 136  0.875  0.625  0.450- 264 2.14 254 2.14 261 2.14 262 2.14 181 2.14 268 2.14
 137  0.750  0.625  0.550- 259 2.14 252 2.14 268 2.14 267 2.14 261 2.14 265 2.16
 138  0.875  0.750  0.550- 268 2.14 267 2.14 187 2.14 260 2.14 262 2.14 266 2.16
 139  0.750  0.750  0.649- 267 2.12 265 2.14 250 2.14 257 2.14 266 2.14
 140  0.875  0.625  0.649- 268 2.12 265 2.14 258 2.14 185 2.14 266 2.14
 141  0.000  0.375  0.450-  13 2.14  16 2.14  23 2.14  47 2.14  96 2.14  17 2.14
 142  0.125  0.000  0.450-  14 2.14  15 2.14  24 2.14  31 2.14  48 2.14  18 2.14
 143  0.000  0.000  0.350-  15 2.14  14 2.14  21 2.14  45 2.14  94 2.14
 144  0.125  0.375  0.350-  16 2.14  13 2.14  22 2.14  29 2.14  46 2.14
 145  1.000  0.375  0.651-  51 2.14  27 2.14  20 2.14 100 2.14  17 2.16
 146  0.125  0.000  0.651-  19 2.14  52 2.14  35 2.14  28 2.14  18 2.16
 147  0.000  0.000  0.550-  19 2.12  49 2.14  25 2.14  18 2.14  98 2.14  15 2.14
 148  0.125  0.375  0.550-  20 2.12  26 2.14  50 2.14  17 2.14  16 2.14  33 2.14
 149  0.000  0.125  0.450-  21 2.14  15 2.14  23 2.14  24 2.14 104 2.14  25 2.14
 150  0.125  0.250  0.450-  22 2.14  16 2.14  23 2.14  24 2.14  39 2.14  26 2.14
 151  0.000  0.250  0.350-  23 2.14  21 2.14  22 2.14  13 2.14 102 2.14
 152  0.125  0.125  0.350-  24 2.14  21 2.14  22 2.14  14 2.14  37 2.14
 153  1.000  0.125  0.651-  27 2.14  19 2.14 108 2.14  28 2.14  25 2.16
 154  0.125  0.250  0.651-  28 2.14  20 2.14  27 2.14  43 2.14  26 2.16
 155  0.000  0.250  0.550-  27 2.12  25 2.14  17 2.14 106 2.14  26 2.14  23 2.14
 156  0.125  0.125  0.550-  28 2.12  18 2.14  25 2.14  41 2.14  26 2.14  24 2.14
 157  0.250  0.375  0.450-  29 2.14  16 2.14  32 2.14  39 2.14  63 2.14  33 2.14
 158  0.375  0.000  0.450-  30 2.14  31 2.14  40 2.14  64 2.14  79 2.14  34 2.14
 159  0.250  0.000  0.350-  31 2.14  30 2.14  14 2.14  37 2.14  61 2.14
 160  0.375  0.375  0.350-  32 2.14  29 2.14  38 2.14  62 2.14  77 2.14
 161  0.250  0.375  0.651-  43 2.14  67 2.14  20 2.14  36 2.14  33 2.17
 162  0.375  0.000  0.651-  35 2.14  83 2.14  68 2.14  44 2.14  34 2.16
 163  0.250  0.000  0.550-  35 2.12  18 2.14  65 2.14  41 2.14  34 2.14  31 2.14
 164  0.375  0.375  0.550-  36 2.13  33 2.13  42 2.13  32 2.13  66 2.14  81 2.14
 165  0.250  0.125  0.450-  37 2.14  31 2.14  24 2.14  39 2.14  40 2.14  41 2.14
 166  0.375  0.250  0.450-  38 2.14  32 2.14  39 2.14  40 2.14  87 2.14  42 2.14
 167  0.250  0.250  0.350-  39 2.14  29 2.14  37 2.14  38 2.14  22 2.14
 168  0.375  0.125  0.350-  40 2.14  37 2.14  38 2.14  30 2.14  85 2.14
 169  0.250  0.125  0.651-  35 2.14  28 2.14  44 2.14  43 2.14  41 2.16
 170  0.375  0.250  0.651-  44 2.13  43 2.13  91 2.14  36 2.14  42 2.16
 171  0.250  0.250  0.550-  43 2.12  26 2.14  41 2.14  33 2.14  39 2.14  42 2.14
 172  0.375  0.125  0.550-  44 2.12  34 2.14  41 2.14  89 2.14  40 2.14  42 2.14
 173  0.000  0.875  0.450-  45 2.14  15 2.14  48 2.14  55 2.14 128 2.14  49 2.14
 174  0.125  0.500  0.450-  46 2.14  16 2.14  47 2.14  56 2.14  63 2.14  50 2.14
 175  0.000  0.500  0.350-  47 2.14  46 2.14  13 2.14  53 2.14 126 2.14
 176  0.125  0.875  0.350-  48 2.14  45 2.14  14 2.14  54 2.14  61 2.14
 177  1.000  0.875  0.651-  59 2.14 132 2.14  52 2.14  19 2.14  49 2.16
 178  0.125  0.500  0.651-  60 2.14  20 2.14  51 2.14  67 2.14  50 2.16
 179  0.000  0.500  0.550-  51 2.12  17 2.14  57 2.14 130 2.14  50 2.14  47 2.14
 180  0.125  0.875  0.550-  52 2.12  49 2.14  65 2.14  18 2.14  58 2.14  48 2.14
 181  0.000  0.625  0.450-  53 2.14  47 2.14  55 2.14  56 2.14 136 2.14  57 2.14
 182  0.125  0.750  0.450-  54 2.14  48 2.14  55 2.14  56 2.14  71 2.14  58 2.14
 183  0.000  0.750  0.350-  55 2.14  53 2.14  54 2.14  45 2.14 134 2.14
 184  0.125  0.625  0.350-  56 2.14  53 2.14  54 2.14  46 2.14  69 2.14
 185  1.000  0.625  0.651-  51 2.14  59 2.14 140 2.14  60 2.14  57 2.16
 186  0.125  0.750  0.651-  52 2.14  59 2.14  60 2.14  75 2.14  58 2.16
 187  0.000  0.750  0.550-  59 2.12  49 2.14  58 2.14 138 2.14  57 2.14  55 2.14
 188  0.125  0.625  0.550-  60 2.12  58 2.14  57 2.14  73 2.14  50 2.14  56 2.14
 189  0.250  0.875  0.450-  61 2.14  48 2.14  31 2.14  64 2.14  71 2.14  65 2.14
 190  0.375  0.500  0.450-  62 2.14  32 2.14  63 2.14  72 2.14 111 2.14  66 2.14
 191  0.250  0.500  0.350-  63 2.14  46 2.14  62 2.14  29 2.14  69 2.14
 192  0.375  0.875  0.350-  64 2.14  61 2.14  30 2.14  70 2.14 109 2.14
 193  0.250  0.875  0.651-  68 2.14  52 2.14  75 2.14  35 2.14  65 2.16
 194  0.375  0.500  0.651-  67 2.13  76 2.13  36 2.14 115 2.14  66 2.16
 195  0.250  0.500  0.550-  67 2.12  50 2.13  73 2.14  33 2.14  63 2.14  66 2.14
 196  0.375  0.875  0.550-  68 2.12 113 2.14  65 2.14  74 2.14  34 2.14  64 2.14
 197  0.250  0.625  0.450-  69 2.14  63 2.14  56 2.14  71 2.14  72 2.14  73 2.14
 198  0.375  0.750  0.450-  70 2.14  64 2.14  71 2.14  72 2.14 119 2.14  74 2.14
 199  0.250  0.750  0.350-  71 2.14  61 2.14  69 2.14  70 2.14  54 2.14
 200  0.375  0.625  0.350-  72 2.14  69 2.14  70 2.14  62 2.14 117 2.14
 201  0.250  0.625  0.651-  60 2.14  75 2.14  67 2.14  76 2.14  73 2.16
 202  0.375  0.750  0.651-  75 2.14 123 2.14  68 2.14  76 2.14  74 2.16
 203  0.250  0.750  0.550-  75 2.12  58 2.14  65 2.14  73 2.14  74 2.14  71 2.14
 204  0.375  0.625  0.550-  76 2.12  74 2.13  73 2.14  72 2.14 121 2.14  66 2.14
 205  0.500  0.375  0.450-  77 2.14  32 2.14  80 2.14  87 2.14 111 2.14  81 2.14
 206  0.625  0.000  0.450-  78 2.14  79 2.14  88 2.14  95 2.14 112 2.14  82 2.14
 207  0.500  0.000  0.350-  79 2.14  78 2.14  30 2.14  85 2.14 109 2.14
 208  0.625  0.375  0.350-  80 2.14  77 2.14  86 2.14  93 2.14 110 2.14
 209  0.500  0.375  0.650-  81 2.13  91 2.13  36 2.13  84 2.13 115 2.13
 210  0.625  0.000  0.651-  99 2.14  83 2.14 116 2.14  92 2.14  82 2.16
 211  0.500  0.000  0.550-  83 2.12  34 2.14  82 2.14 113 2.14  89 2.14  79 2.14
 212  0.625  0.375  0.550-  97 2.13  84 2.13  90 2.13  80 2.13 114 2.14  81 2.14
 213  0.500  0.125  0.450-  85 2.14  79 2.14  40 2.14  87 2.14  88 2.14  89 2.14
 214  0.625  0.250  0.450-  86 2.14  80 2.14  87 2.14  88 2.14 103 2.14  90 2.14
 215  0.500  0.250  0.350-  87 2.14  77 2.14  85 2.14  86 2.14  38 2.14
 216  0.625  0.125  0.350-  88 2.14  85 2.14  86 2.14  78 2.14 101 2.14
 217  0.500  0.125  0.651-  44 2.14  92 2.14  83 2.14  91 2.14  89 2.17
 218  0.625  0.250  0.651-  92 2.13 107 2.13  91 2.14  84 2.14  90 2.16
 219  0.500  0.250  0.550-  91 2.13  89 2.13  87 2.14  42 2.14  90 2.14  81 2.14
 220  0.625  0.125  0.550-  92 2.12  82 2.14 105 2.14  89 2.14  88 2.14  90 2.14
 221  0.750  0.375  0.450-  93 2.14  80 2.14  96 2.14 103 2.14 127 2.14  97 2.14
 222  0.875  0.000  0.450-  94 2.14  15 2.14  95 2.14 104 2.14 128 2.14  98 2.14
 223  0.750  0.000  0.350-  95 2.14  94 2.14  78 2.14 101 2.14 125 2.14
 224  0.875  0.375  0.350-  96 2.14  93 2.14  13 2.14 102 2.14 126 2.14
 225  0.750  0.375  0.651- 131 2.14 107 2.14 100 2.14  84 2.14  97 2.17
 226  0.875  0.000  0.651- 132 2.14  19 2.14  99 2.14 108 2.14  98 2.16
 227  0.750  0.000  0.550-  99 2.12  98 2.14 129 2.14 105 2.14  82 2.14  95 2.14
 228  0.875  0.375  0.550- 100 2.12 106 2.14 130 2.14  17 2.14  96 2.14  97 2.14
 229  0.750  0.125  0.450- 101 2.14  95 2.14  88 2.14 103 2.14 104 2.14 105 2.14
 230  0.875  0.250  0.450- 102 2.14  96 2.14  23 2.14 103 2.14 104 2.14 106 2.14
 231  0.750  0.250  0.350- 103 2.14  93 2.14 101 2.14 102 2.14  86 2.14
 232  0.875  0.125  0.350- 104 2.14  94 2.14 101 2.14 102 2.14  21 2.14
 233  0.750  0.125  0.651-  99 2.14 108 2.14  92 2.14 107 2.14 105 2.16
 234  0.875  0.250  0.651- 108 2.14 100 2.14  27 2.14 107 2.14 106 2.16
 235  0.750  0.250  0.550- 107 2.12 106 2.14 105 2.14  97 2.14 103 2.14  90 2.14
 236  0.875  0.125  0.550- 108 2.12  98 2.14  25 2.14 105 2.14 106 2.14 104 2.14
 237  0.500  0.875  0.450- 109 2.14  79 2.14  64 2.14 112 2.14 119 2.14 113 2.14
 238  0.625  0.500  0.450- 110 2.14  80 2.14 111 2.14 120 2.14 127 2.14 114 2.14
 239  0.500  0.500  0.350- 111 2.14  77 2.14 110 2.14  62 2.14 117 2.14
 240  0.625  0.875  0.350- 112 2.14 109 2.14  78 2.14 118 2.14 125 2.14
 241  0.500  0.875  0.651- 116 2.14  68 2.14 123 2.14  83 2.14 113 2.16
 242  0.625  0.500  0.651- 131 2.13 124 2.13  84 2.14 115 2.14 114 2.15
 243  0.500  0.500  0.550- 121 2.13 115 2.13  66 2.13 111 2.13 114 2.14  81 2.14
 244  0.625  0.875  0.550- 116 2.12 113 2.14 129 2.14 122 2.14  82 2.14 112 2.14
 245  0.500  0.625  0.450- 117 2.14 111 2.14  72 2.14 119 2.14 120 2.14 121 2.14
 246  0.625  0.750  0.450- 118 2.14 112 2.14 119 2.14 120 2.14 135 2.14 122 2.14
 247  0.500  0.750  0.350- 119 2.14 109 2.14 117 2.14 118 2.14  70 2.14
 248  0.625  0.625  0.350- 120 2.14 117 2.14 118 2.14 110 2.14 133 2.14
 249  0.500  0.625  0.651- 123 2.14 124 2.14  76 2.14 115 2.14 121 2.17
 250  0.625  0.750  0.651- 139 2.14 123 2.14 116 2.14 124 2.14 122 2.16
 251  0.500  0.750  0.550- 123 2.12  74 2.14 122 2.14 113 2.14 119 2.14 121 2.14
 252  0.625  0.625  0.550- 124 2.12 122 2.13 137 2.14 120 2.14 121 2.14 114 2.14
 253  0.750  0.875  0.450- 125 2.14 112 2.14  95 2.14 128 2.14 135 2.14 129 2.14
 254  0.875  0.500  0.450- 126 2.14  96 2.14  47 2.14 127 2.14 136 2.14 130 2.14
 255  0.750  0.500  0.350- 127 2.14 110 2.14 126 2.14  93 2.14 133 2.14
 256  0.875  0.875  0.350- 128 2.14  94 2.14 125 2.14  45 2.14 134 2.14
 257  0.750  0.875  0.651- 116 2.14 139 2.14 132 2.14  99 2.14 129 2.16
 258  0.875  0.500  0.651- 140 2.14 100 2.14  51 2.14 131 2.14 130 2.16
 259  0.750  0.500  0.550- 131 2.12 130 2.13 137 2.14 127 2.14  97 2.14 114 2.14
 260  0.875  0.875  0.550- 132 2.12  49 2.14  98 2.14 129 2.14 138 2.14 128 2.14
 261  0.750  0.625  0.450- 133 2.14 127 2.14 120 2.14 135 2.14 136 2.14 137 2.14
 262  0.875  0.750  0.450- 134 2.14 128 2.14  55 2.14 135 2.14 136 2.14 138 2.14
 263  0.750  0.750  0.350- 135 2.14 125 2.14 133 2.14 134 2.14 118 2.14
 264  0.875  0.625  0.350- 136 2.14 126 2.14 133 2.14 134 2.14  53 2.14
 265  0.750  0.625  0.651- 139 2.14 140 2.14 131 2.14 124 2.14 137 2.16
 266  0.875  0.750  0.651- 132 2.14  59 2.14 140 2.14 139 2.14 138 2.16
 267  0.750  0.750  0.550- 139 2.12 138 2.14 129 2.14 137 2.14 122 2.14 135 2.14
 268  0.875  0.625  0.550- 140 2.12 138 2.14  57 2.14 137 2.14 130 2.14 136 2.14
 

IMPORTANT INFORMATION: All symmetrisations will be switched off!
NOSYMM: (Re-)initialisation of all symmetry stuff for point group C_1.


----------------------------------------------------------------------------------------

                                     Primitive cell                                     

  volume of cell :    6254.6868

  direct lattice vectors                    reciprocal lattice vectors
    17.092227251  0.000000000  0.000000000     0.058506126  0.000000000  0.000000000
     0.000000000 17.092227251  0.000000000     0.000000000  0.058506126  0.000000000
     0.000000000  0.000000000 21.409585219     0.000000000  0.000000000  0.046708051

  length of vectors
    17.092227251 17.092227251 21.409585219     0.058506126  0.058506126  0.046708051

  position of ions in fractional coordinates (direct lattice)
     0.477570141  0.467837201  0.807940107
     0.559060570  0.457949773  0.806737159
     0.591310963  0.382416287  0.808544181
     0.542068370  0.316845892  0.811749661
     0.460531517  0.326745150  0.813063201
     0.428309770  0.402203781  0.811036139
     0.452510173  0.526389982  0.806488361
     0.597315136  0.508757180  0.804118514
     0.654603372  0.374762423  0.807605719
     0.567202852  0.258310953  0.813110241
     0.422284937  0.275874606  0.815406011
     0.365058647  0.409962530  0.811988904
     0.000000000  0.375000000  0.350310383
     0.125000000  0.000000000  0.350310383
     0.000000000  0.000000000  0.450103461
     0.125000000  0.375000000  0.450103461
     0.000001116  0.375006529  0.550244890
     0.125014202  0.000019934  0.550218876
     0.000001432  0.000011542  0.649141069
     0.125051145  0.375013201  0.649186242
     0.000000000  0.125000000  0.350310383
     0.125000000  0.250000000  0.350310383
     0.000000000  0.250000000  0.450103461
     0.125000000  0.125000000  0.450103461
     0.999998939  0.125015787  0.550216330
     0.125028987  0.250027342  0.550221735
     0.999997611  0.250015703  0.649146861
     0.125015494  0.125030615  0.649157303
     0.250000000  0.375000000  0.350310383
     0.375000000  0.000000000  0.350310383
     0.250000000  0.000000000  0.450103461
     0.375000000  0.375000000  0.450103461
     0.250112440  0.375007415  0.550229655
     0.375019466  0.000030631  0.550223454
     0.250017304  0.000024300  0.649156554
     0.375443652  0.375079460  0.649246484
     0.250000000  0.125000000  0.350310383
     0.375000000  0.250000000  0.350310383
     0.250000000  0.250000000  0.450103461
     0.375000000  0.125000000  0.450103461
     0.250019357  0.125025730  0.550222170
     0.375075792  0.250093868  0.550237627
     0.250099169  0.250061042  0.649126731
     0.375048471  0.125105529  0.649117844
     0.000000000  0.875000000  0.350310383
     0.125000000  0.500000000  0.350310383
     0.000000000  0.500000000  0.450103461
     0.125000000  0.875000000  0.450103461
     0.000000808  0.875008861  0.550211091
     0.125013017  0.499986306  0.550216492
     0.999998220  0.500003159  0.649159071
     0.125000548  0.875008921  0.649140126
     0.000000000  0.625000000  0.350310383
     0.125000000  0.750000000  0.350310383
     0.000000000  0.750000000  0.450103461
     0.125000000  0.625000000  0.450103461
     0.000001010  0.624997118  0.550216998
     0.125006141  0.749997133  0.550214143
     0.000002000  0.750014014  0.649136580
     0.125013236  0.625000188  0.649151553
     0.250000000  0.875000000  0.350310383
     0.375000000  0.500000000  0.350310383
     0.250000000  0.500000000  0.450103461
     0.375000000  0.875000000  0.450103461
     0.250009735  0.875008235  0.550214324
     0.375100932  0.499933002  0.550246304
     0.250098306  0.499996290  0.649032846
     0.375004957  0.874999737  0.649147605
     0.250000000  0.625000000  0.350310383
     0.375000000  0.750000000  0.350310383
     0.250000000  0.750000000  0.450103461
     0.375000000  0.625000000  0.450103461
     0.250004050  0.624990658  0.550193210
     0.375020481  0.749993906  0.550200821
     0.250011668  0.749997585  0.649143301
     0.375018016  0.624908588  0.648985141
     0.500000000  0.375000000  0.350310383
     0.625000000  0.000000000  0.350310383
     0.500000000  0.000000000  0.450103461
     0.625000000  0.375000000  0.450103461
     0.500030850  0.375057278  0.550209096
     0.624981938  0.000024911  0.550223174
     0.500003378  0.000058875  0.649190458
     0.624552851  0.375086240  0.649425364
     0.500000000  0.125000000  0.350310383
     0.625000000  0.250000000  0.350310383
     0.500000000  0.250000000  0.450103461
     0.625000000  0.125000000  0.450103461
     0.500003825  0.125106720  0.550226327
     0.624932619  0.250108298  0.550251288
     0.500033961  0.250454506  0.649182576
     0.624972043  0.125103908  0.649077366
     0.750000000  0.375000000  0.350310383
     0.875000000  0.000000000  0.350310383
     0.750000000  0.000000000  0.450103461
     0.875000000  0.375000000  0.450103461
     0.749867093  0.375006333  0.550230624
     0.874988563  0.000014907  0.550219567
     0.749989836  0.000022162  0.649156049
     0.874945865  0.375013484  0.649173078
     0.750000000  0.125000000  0.350310383
     0.875000000  0.250000000  0.350310383
     0.750000000  0.250000000  0.450103461
     0.875000000  0.125000000  0.450103461
     0.749983099  0.125015431  0.550212630
     0.874979463  0.250028638  0.550207986
     0.749898308  0.250044546  0.649070436
     0.874983965  0.125025934  0.649151707
     0.500000000  0.875000000  0.350310383
     0.625000000  0.500000000  0.350310383
     0.500000000  0.500000000  0.450103461
     0.625000000  0.875000000  0.450103461
     0.500000485  0.875006511  0.550245466
     0.624909743  0.499917537  0.550243095
     0.500032429  0.499571212  0.649483443
     0.624995325  0.875000214  0.649156204
     0.500000000  0.625000000  0.350310383
     0.625000000  0.750000000  0.350310383
     0.500000000  0.750000000  0.450103461
     0.625000000  0.625000000  0.450103461
     0.499999135  0.624862970  0.550225670
     0.624977749  0.750003195  0.550187935
     0.500001039  0.749945041  0.649172186
     0.624981220  0.624926764  0.648896042
     0.750000000  0.875000000  0.350310383
     0.875000000  0.500000000  0.350310383
     0.750000000  0.500000000  0.450103461
     0.875000000  0.875000000  0.450103461
     0.749992532  0.875010822  0.550216434
     0.874996684  0.499985810  0.550198746
     0.749912507  0.499997142  0.648935247
     0.875005086  0.875009780  0.649137617
     0.750000000  0.625000000  0.350310383
     0.875000000  0.750000000  0.350310383
     0.750000000  0.750000000  0.450103461
     0.875000000  0.625000000  0.450103461
     0.749999981  0.624996848  0.550164918
     0.874994078  0.749997104  0.550209090
     0.749991615  0.749999140  0.649138405
     0.874988696  0.625000987  0.649144472
     0.000000000  0.375000000  0.450103461
     0.125000000  0.000000000  0.450103461
     0.000000000  0.000000000  0.350310383
     0.125000000  0.375000000  0.350310383
     0.999998395  0.375014475  0.651201856
     0.125000619  0.000009529  0.651137255
     0.000001977  0.000008264  0.549934511
     0.125020468  0.375000795  0.549964004
     0.000000000  0.125000000  0.450103461
     0.125000000  0.250000000  0.450103461
     0.000000000  0.250000000  0.350310383
     0.125000000  0.125000000  0.350310383
     0.999999414  0.125016681  0.651128702
     0.125008123  0.250015142  0.651166049
     0.000001513  0.250010635  0.549950231
     0.125005697  0.125003824  0.549945691
     0.250000000  0.375000000  0.450103461
     0.375000000  0.000000000  0.450103461
     0.250000000  0.000000000  0.350310383
     0.375000000  0.375000000  0.350310383
     0.250054322  0.375021164  0.651385315
     0.375005803  0.000011401  0.651164816
     0.249996627  0.000009632  0.549944874
     0.374783448  0.374979124  0.549824529
     0.250000000  0.125000000  0.450103461
     0.375000000  0.250000000  0.450103461
     0.250000000  0.250000000  0.350310383
     0.375000000  0.125000000  0.350310383
     0.249994962  0.124999312  0.651230457
     0.374965513  0.249970493  0.651236990
     0.249973161  0.249985471  0.549963100
     0.374981452  0.124979672  0.549959163
     0.000000000  0.875000000  0.450103461
     0.125000000  0.500000000  0.450103461
     0.000000000  0.500000000  0.350310383
     0.125000000  0.875000000  0.350310383
     0.999999698  0.875008005  0.651135572
     0.125003703  0.500012324  0.651183849
     0.000002747  0.499996777  0.549950899
     0.125001359  0.875009900  0.549933184
     0.000000000  0.625000000  0.450103461
     0.125000000  0.750000000  0.450103461
     0.000000000  0.750000000  0.350310383
     0.125000000  0.625000000  0.350310383
     0.999999541  0.625004462  0.651131789
     0.124999142  0.750011853  0.651119724
     0.000003361  0.750010488  0.549930179
     0.124994090  0.625011451  0.549945195
     0.250000000  0.875000000  0.450103461
     0.375000000  0.500000000  0.450103461
     0.250000000  0.500000000  0.350310383
     0.375000000  0.875000000  0.350310383
     0.250007687  0.875008989  0.651128652
     0.374845592  0.500139692  0.650963349
     0.249921124  0.500028608  0.549918183
     0.375006886  0.875006915  0.549948941
     0.250000000  0.625000000  0.450103461
     0.375000000  0.750000000  0.450103461
     0.250000000  0.750000000  0.350310383
     0.375000000  0.625000000  0.350310383
     0.249974598  0.625033252  0.651218292
     0.374999520  0.749993578  0.651168547
     0.249998539  0.750009920  0.549942871
     0.374972395  0.625083883  0.549916697
     0.500000000  0.375000000  0.450103461
     0.625000000  0.000000000  0.450103461
     0.500000000  0.000000000  0.350310383
     0.625000000  0.375000000  0.350310383
     0.499995305  0.375004436  0.649538771
     0.625003011  0.000014489  0.651181533
     0.499999485  0.000027556  0.549962713
     0.625216391  0.374971757  0.549824875
     0.500000000  0.125000000  0.450103461
     0.625000000  0.250000000  0.450103461
     0.500000000  0.250000000  0.350310383
     0.625000000  0.125000000  0.350310383
     0.500008127  0.125066203  0.651368470
     0.625078347  0.249913306  0.651135373
     0.499990291  0.249791281  0.549825629
     0.625022159  0.124954583  0.549941463
     0.750000000  0.375000000  0.450103461
     0.875000000  0.000000000  0.450103461
     0.750000000  0.000000000  0.350310383
     0.875000000  0.375000000  0.350310383
     0.749962381  0.375024990  0.651410295
     0.875001581  0.000009417  0.651131350
     0.750004200  0.000006012  0.549949286
     0.874984480  0.375001066  0.549961138
     0.750000000  0.125000000  0.450103461
     0.875000000  0.250000000  0.450103461
     0.750000000  0.250000000  0.350310383
     0.875000000  0.125000000  0.350310383
     0.750013498  0.124990183  0.651232384
     0.874989010  0.250013620  0.651172846
     0.750051807  0.249980576  0.549947697
     0.874996392  0.125002622  0.549944672
     0.500000000  0.875000000  0.450103461
     0.625000000  0.500000000  0.450103461
     0.500000000  0.500000000  0.350310383
     0.625000000  0.875000000  0.350310383
     0.500001899  0.875001430  0.651207069
     0.625212277  0.500213540  0.650728856
     0.499980259  0.500218057  0.549820327
     0.624992644  0.875010910  0.549950324
     0.500000000  0.625000000  0.450103461
     0.625000000  0.750000000  0.450103461
     0.500000000  0.750000000  0.350310383
     0.625000000  0.625000000  0.350310383
     0.500006240  0.624969566  0.651406907
     0.625004747  0.749994940  0.651157336
     0.499997165  0.749992059  0.549958861
     0.625030414  0.625116808  0.549879475
     0.750000000  0.875000000  0.450103461
     0.875000000  0.500000000  0.450103461
     0.750000000  0.500000000  0.350310383
     0.875000000  0.875000000  0.350310383
     0.749996166  0.875007442  0.651130537
     0.874993844  0.500016798  0.651166218
     0.750112284  0.500034028  0.549884371
     0.875004310  0.875012713  0.549930499
     0.750000000  0.625000000  0.450103461
     0.875000000  0.750000000  0.450103461
     0.750000000  0.750000000  0.350310383
     0.875000000  0.625000000  0.350310383
     0.750032660  0.625043576  0.651220826
     0.875008156  0.750016867  0.651117500
     0.750009156  0.750014821  0.549939800
     0.875008783  0.625015779  0.549941384

  ion indices of the primitive-cell ions
   primitive index   ion index
                 1           1
                 2           2
                 3           3
                 4           4
                 5           5
                 6           6
                 7           7
                 8           8
                 9           9
                10          10
                11          11
                12          12
                13          13
                14          14
                15          15
                16          16
                17          17
                18          18
                19          19
                20          20
                21          21
                22          22
                23          23
                24          24
                25          25
                26          26
                27          27
                28          28
                29          29
                30          30
                31          31
                32          32
                33          33
                34          34
                35          35
                36          36
                37          37
                38          38
                39          39
                40          40
                41          41
                42          42
                43          43
                44          44
                45          45
                46          46
                47          47
                48          48
                49          49
                50          50
                51          51
                52          52
                53          53
                54          54
                55          55
                56          56
                57          57
                58          58
                59          59
                60          60
                61          61
                62          62
                63          63
                64          64
                65          65
                66          66
                67          67
                68          68
                69          69
                70          70
                71          71
                72          72
                73          73
                74          74
                75          75
                76          76
                77          77
                78          78
                79          79
                80          80
                81          81
                82          82
                83          83
                84          84
                85          85
                86          86
                87          87
                88          88
                89          89
                90          90
                91          91
                92          92
                93          93
                94          94
                95          95
                96          96
                97          97
                98          98
                99          99
               100         100
               101         101
               102         102
               103         103
               104         104
               105         105
               106         106
               107         107
               108         108
               109         109
               110         110
               111         111
               112         112
               113         113
               114         114
               115         115
               116         116
               117         117
               118         118
               119         119
               120         120
               121         121
               122         122
               123         123
               124         124
               125         125
               126         126
               127         127
               128         128
               129         129
               130         130
               131         131
               132         132
               133         133
               134         134
               135         135
               136         136
               137         137
               138         138
               139         139
               140         140
               141         141
               142         142
               143         143
               144         144
               145         145
               146         146
               147         147
               148         148
               149         149
               150         150
               151         151
               152         152
               153         153
               154         154
               155         155
               156         156
               157         157
               158         158
               159         159
               160         160
               161         161
               162         162
               163         163
               164         164
               165         165
               166         166
               167         167
               168         168
               169         169
               170         170
               171         171
               172         172
               173         173
               174         174
               175         175
               176         176
               177         177
               178         178
               179         179
               180         180
               181         181
               182         182
               183         183
               184         184
               185         185
               186         186
               187         187
               188         188
               189         189
               190         190
               191         191
               192         192
               193         193
               194         194
               195         195
               196         196
               197         197
               198         198
               199         199
               200         200
               201         201
               202         202
               203         203
               204         204
               205         205
               206         206
               207         207
               208         208
               209         209
               210         210
               211         211
               212         212
               213         213
               214         214
               215         215
               216         216
               217         217
               218         218
               219         219
               220         220
               221         221
               222         222
               223         223
               224         224
               225         225
               226         226
               227         227
               228         228
               229         229
               230         230
               231         231
               232         232
               233         233
               234         234
               235         235
               236         236
               237         237
               238         238
               239         239
               240         240
               241         241
               242         242
               243         243
               244         244
               245         245
               246         246
               247         247
               248         248
               249         249
               250         250
               251         251
               252         252
               253         253
               254         254
               255         255
               256         256
               257         257
               258         258
               259         259
               260         260
               261         261
               262         262
               263         263
               264         264
               265         265
               266         266
               267         267
               268         268

----------------------------------------------------------------------------------------

 
 
 KPOINTS: pymatgen v2020.8.13 with grid density = 

Automatic generation of k-mesh.
 Grid dimensions read from file:
 generate k-points for:    1    1    1

 Generating k-lattice:

  Cartesian coordinates                     Fractional coordinates (reciprocal lattice)
     0.058506126  0.000000000  0.000000000     1.000000000  0.000000000  0.000000000
     0.000000000  0.058506126  0.000000000     0.000000000  1.000000000  0.000000000
     0.000000000  0.000000000  0.046708051     0.000000000  0.000000000  1.000000000

  Length of vectors
     0.058506126  0.058506126  0.046708051

  Shift w.r.t. Gamma in fractional coordinates (k-lattice)
     0.000000000  0.000000000  0.000000000

 
 Subroutine IBZKPT returns following result:
 ===========================================
 
 Found      1 irreducible k-points:
 
 Following reciprocal coordinates:
            Coordinates               Weight
  0.000000  0.000000  0.000000      1.000000
 
 Following cartesian coordinates:
            Coordinates               Weight
  0.000000  0.000000  0.000000      1.000000
 


--------------------------------------------------------------------------------------------------------




 Dimension of arrays:
   k-points           NKPTS =      1   k-points in BZ     NKDIM =      1   number of bands    NBANDS=   1216
   number of dos      NEDOS =    301   number of ions     NIONS =    268
   non local maximal  LDIM  =      5   non local SUM 2l+1 LMDIM =     13
   total plane-waves  NPLWV = ******
   max r-space proj   IRMAX =   3771   max aug-charges    IRDMAX=   8459
   dimension x,y,z NGX =   128 NGY =  128 NGZ =  160
   dimension x,y,z NGXF=   256 NGYF=  256 NGZF=  320
   support grid    NGXF=   256 NGYF=  256 NGZF=  320
   ions per type =               6   6 128 128
   NGX,Y,Z   is equivalent  to a cutoff of  12.45, 12.45, 12.42 a.u.
   NGXF,Y,Z  is equivalent  to a cutoff of  24.90, 24.90, 24.85 a.u.

 SYSTEM =  MgO-rocksalt                            
 POSCAR =   C  H Mg  O                             

--------------------------------------------------------------------------------------------------------


  energy-cutoff  :      520.00
  volume of cell :     6254.69
      direct lattice vectors                 reciprocal lattice vectors
    17.092227251  0.000000000  0.000000000     0.058506126  0.000000000  0.000000000
     0.000000000 17.092227251  0.000000000     0.000000000  0.058506126  0.000000000
     0.000000000  0.000000000 21.409585219     0.000000000  0.000000000  0.046708051

  length of vectors
    17.092227251 17.092227251 21.409585219     0.058506126  0.058506126  0.046708051


 
 k-points in units of 2pi/SCALE and weight: pymatgen v2020.8.13 with grid density = 
   0.00000000  0.00000000  0.00000000       1.000
 
 k-points in reciprocal lattice and weights: pymatgen v2020.8.13 with grid density = 
   0.00000000  0.00000000  0.00000000       1.000
 
 position of ions in fractional coordinates (direct lattice) 
   0.47757014  0.46783720  0.80794011
   0.55906057  0.45794977  0.80673716
   0.59131096  0.38241629  0.80854418
   0.54206837  0.31684589  0.81174966
   0.46053152  0.32674515  0.81306320
   0.42830977  0.40220378  0.81103614
   0.45251017  0.52638998  0.80648836
   0.59731514  0.50875718  0.80411851
   0.65460337  0.37476242  0.80760572
   0.56720285  0.25831095  0.81311024
   0.42228494  0.27587461  0.81540601
   0.36505865  0.40996253  0.81198890
   0.00000000  0.37500000  0.35031038
   0.12500000  0.00000000  0.35031038
   0.00000000  0.00000000  0.45010346
   0.12500000  0.37500000  0.45010346
   0.00000112  0.37500653  0.55024489
   0.12501420  0.00001993  0.55021888
   0.00000143  0.00001154  0.64914107
   0.12505114  0.37501320  0.64918624
   0.00000000  0.12500000  0.35031038
   0.12500000  0.25000000  0.35031038
   0.00000000  0.25000000  0.45010346
   0.12500000  0.12500000  0.45010346
   0.99999894  0.12501579  0.55021633
   0.12502899  0.25002734  0.55022174
   0.99999761  0.25001570  0.64914686
   0.12501549  0.12503062  0.64915730
   0.25000000  0.37500000  0.35031038
   0.37500000  0.00000000  0.35031038
   0.25000000  0.00000000  0.45010346
   0.37500000  0.37500000  0.45010346
   0.25011244  0.37500742  0.55022965
   0.37501947  0.00003063  0.55022345
   0.25001730  0.00002430  0.64915655
   0.37544365  0.37507946  0.64924648
   0.25000000  0.12500000  0.35031038
   0.37500000  0.25000000  0.35031038
   0.25000000  0.25000000  0.45010346
   0.37500000  0.12500000  0.45010346
   0.25001936  0.12502573  0.55022217
   0.37507579  0.25009387  0.55023763
   0.25009917  0.25006104  0.64912673
   0.37504847  0.12510553  0.64911784
   0.00000000  0.87500000  0.35031038
   0.12500000  0.50000000  0.35031038
   0.00000000  0.50000000  0.45010346
   0.12500000  0.87500000  0.45010346
   0.00000081  0.87500886  0.55021109
   0.12501302  0.49998631  0.55021649
   0.99999822  0.50000316  0.64915907
   0.12500055  0.87500892  0.64914013
   0.00000000  0.62500000  0.35031038
   0.12500000  0.75000000  0.35031038
   0.00000000  0.75000000  0.45010346
   0.12500000  0.62500000  0.45010346
   0.00000101  0.62499712  0.55021700
   0.12500614  0.74999713  0.55021414
   0.00000200  0.75001401  0.64913658
   0.12501324  0.62500019  0.64915155
   0.25000000  0.87500000  0.35031038
   0.37500000  0.50000000  0.35031038
   0.25000000  0.50000000  0.45010346
   0.37500000  0.87500000  0.45010346
   0.25000974  0.87500824  0.55021432
   0.37510093  0.49993300  0.55024630
   0.25009831  0.49999629  0.64903285
   0.37500496  0.87499974  0.64914761
   0.25000000  0.62500000  0.35031038
   0.37500000  0.75000000  0.35031038
   0.25000000  0.75000000  0.45010346
   0.37500000  0.62500000  0.45010346
   0.25000405  0.62499066  0.55019321
   0.37502048  0.74999391  0.55020082
   0.25001167  0.74999759  0.64914330
   0.37501802  0.62490859  0.64898514
   0.50000000  0.37500000  0.35031038
   0.62500000  0.00000000  0.35031038
   0.50000000  0.00000000  0.45010346
   0.62500000  0.37500000  0.45010346
   0.50003085  0.37505728  0.55020910
   0.62498194  0.00002491  0.55022317
   0.50000338  0.00005887  0.64919046
   0.62455285  0.37508624  0.64942536
   0.50000000  0.12500000  0.35031038
   0.62500000  0.25000000  0.35031038
   0.50000000  0.25000000  0.45010346
   0.62500000  0.12500000  0.45010346
   0.50000383  0.12510672  0.55022633
   0.62493262  0.25010830  0.55025129
   0.50003396  0.25045451  0.64918258
   0.62497204  0.12510391  0.64907737
   0.75000000  0.37500000  0.35031038
   0.87500000  0.00000000  0.35031038
   0.75000000  0.00000000  0.45010346
   0.87500000  0.37500000  0.45010346
   0.74986709  0.37500633  0.55023062
   0.87498856  0.00001491  0.55021957
   0.74998984  0.00002216  0.64915605
   0.87494587  0.37501348  0.64917308
   0.75000000  0.12500000  0.35031038
   0.87500000  0.25000000  0.35031038
   0.75000000  0.25000000  0.45010346
   0.87500000  0.12500000  0.45010346
   0.74998310  0.12501543  0.55021263
   0.87497946  0.25002864  0.55020799
   0.74989831  0.25004455  0.64907044
   0.87498397  0.12502593  0.64915171
   0.50000000  0.87500000  0.35031038
   0.62500000  0.50000000  0.35031038
   0.50000000  0.50000000  0.45010346
   0.62500000  0.87500000  0.45010346
   0.50000048  0.87500651  0.55024547
   0.62490974  0.49991754  0.55024310
   0.50003243  0.49957121  0.64948344
   0.62499533  0.87500021  0.64915620
   0.50000000  0.62500000  0.35031038
   0.62500000  0.75000000  0.35031038
   0.50000000  0.75000000  0.45010346
   0.62500000  0.62500000  0.45010346
   0.49999913  0.62486297  0.55022567
   0.62497775  0.75000319  0.55018794
   0.50000104  0.74994504  0.64917219
   0.62498122  0.62492676  0.64889604
   0.75000000  0.87500000  0.35031038
   0.87500000  0.50000000  0.35031038
   0.75000000  0.50000000  0.45010346
   0.87500000  0.87500000  0.45010346
   0.74999253  0.87501082  0.55021643
   0.87499668  0.49998581  0.55019875
   0.74991251  0.49999714  0.64893525
   0.87500509  0.87500978  0.64913762
   0.75000000  0.62500000  0.35031038
   0.87500000  0.75000000  0.35031038
   0.75000000  0.75000000  0.45010346
   0.87500000  0.62500000  0.45010346
   0.74999998  0.62499685  0.55016492
   0.87499408  0.74999710  0.55020909
   0.74999162  0.74999914  0.64913840
   0.87498870  0.62500099  0.64914447
   0.00000000  0.37500000  0.45010346
   0.12500000  0.00000000  0.45010346
   0.00000000  0.00000000  0.35031038
   0.12500000  0.37500000  0.35031038
   0.99999839  0.37501448  0.65120186
   0.12500062  0.00000953  0.65113726
   0.00000198  0.00000826  0.54993451
   0.12502047  0.37500080  0.54996400
   0.00000000  0.12500000  0.45010346
   0.12500000  0.25000000  0.45010346
   0.00000000  0.25000000  0.35031038
   0.12500000  0.12500000  0.35031038
   0.99999941  0.12501668  0.65112870
   0.12500812  0.25001514  0.65116605
   0.00000151  0.25001063  0.54995023
   0.12500570  0.12500382  0.54994569
   0.25000000  0.37500000  0.45010346
   0.37500000  0.00000000  0.45010346
   0.25000000  0.00000000  0.35031038
   0.37500000  0.37500000  0.35031038
   0.25005432  0.37502116  0.65138531
   0.37500580  0.00001140  0.65116482
   0.24999663  0.00000963  0.54994487
   0.37478345  0.37497912  0.54982453
   0.25000000  0.12500000  0.45010346
   0.37500000  0.25000000  0.45010346
   0.25000000  0.25000000  0.35031038
   0.37500000  0.12500000  0.35031038
   0.24999496  0.12499931  0.65123046
   0.37496551  0.24997049  0.65123699
   0.24997316  0.24998547  0.54996310
   0.37498145  0.12497967  0.54995916
   0.00000000  0.87500000  0.45010346
   0.12500000  0.50000000  0.45010346
   0.00000000  0.50000000  0.35031038
   0.12500000  0.87500000  0.35031038
   0.99999970  0.87500801  0.65113557
   0.12500370  0.50001232  0.65118385
   0.00000275  0.49999678  0.54995090
   0.12500136  0.87500990  0.54993318
   0.00000000  0.62500000  0.45010346
   0.12500000  0.75000000  0.45010346
   0.00000000  0.75000000  0.35031038
   0.12500000  0.62500000  0.35031038
   0.99999954  0.62500446  0.65113179
   0.12499914  0.75001185  0.65111972
   0.00000336  0.75001049  0.54993018
   0.12499409  0.62501145  0.54994519
   0.25000000  0.87500000  0.45010346
   0.37500000  0.50000000  0.45010346
   0.25000000  0.50000000  0.35031038
   0.37500000  0.87500000  0.35031038
   0.25000769  0.87500899  0.65112865
   0.37484559  0.50013969  0.65096335
   0.24992112  0.50002861  0.54991818
   0.37500689  0.87500691  0.54994894
   0.25000000  0.62500000  0.45010346
   0.37500000  0.75000000  0.45010346
   0.25000000  0.75000000  0.35031038
   0.37500000  0.62500000  0.35031038
   0.24997460  0.62503325  0.65121829
   0.37499952  0.74999358  0.65116855
   0.24999854  0.75000992  0.54994287
   0.37497240  0.62508388  0.54991670
   0.50000000  0.37500000  0.45010346
   0.62500000  0.00000000  0.45010346
   0.50000000  0.00000000  0.35031038
   0.62500000  0.37500000  0.35031038
   0.49999531  0.37500444  0.64953877
   0.62500301  0.00001449  0.65118153
   0.49999949  0.00002756  0.54996271
   0.62521639  0.37497176  0.54982487
   0.50000000  0.12500000  0.45010346
   0.62500000  0.25000000  0.45010346
   0.50000000  0.25000000  0.35031038
   0.62500000  0.12500000  0.35031038
   0.50000813  0.12506620  0.65136847
   0.62507835  0.24991331  0.65113537
   0.49999029  0.24979128  0.54982563
   0.62502216  0.12495458  0.54994146
   0.75000000  0.37500000  0.45010346
   0.87500000  0.00000000  0.45010346
   0.75000000  0.00000000  0.35031038
   0.87500000  0.37500000  0.35031038
   0.74996238  0.37502499  0.65141030
   0.87500158  0.00000942  0.65113135
   0.75000420  0.00000601  0.54994929
   0.87498448  0.37500107  0.54996114
   0.75000000  0.12500000  0.45010346
   0.87500000  0.25000000  0.45010346
   0.75000000  0.25000000  0.35031038
   0.87500000  0.12500000  0.35031038
   0.75001350  0.12499018  0.65123238
   0.87498901  0.25001362  0.65117285
   0.75005181  0.24998058  0.54994770
   0.87499639  0.12500262  0.54994467
   0.50000000  0.87500000  0.45010346
   0.62500000  0.50000000  0.45010346
   0.50000000  0.50000000  0.35031038
   0.62500000  0.87500000  0.35031038
   0.50000190  0.87500143  0.65120707
   0.62521228  0.50021354  0.65072886
   0.49998026  0.50021806  0.54982033
   0.62499264  0.87501091  0.54995032
   0.50000000  0.62500000  0.45010346
   0.62500000  0.75000000  0.45010346
   0.50000000  0.75000000  0.35031038
   0.62500000  0.62500000  0.35031038
   0.50000624  0.62496957  0.65140691
   0.62500475  0.74999494  0.65115734
[...]
      0.00002     10.68259     11.77992         0.000239      0.000844      0.000476
      2.13663     12.81912     11.77986        -0.000316      0.001101      0.000246
      0.00003     12.81941     13.89774        -0.000164     -0.001062     -0.126021
      2.13675     10.68265     13.89807        -0.000648     -0.000404     -0.125551
      4.27306     14.95570      7.50000         0.000908     -0.000199      0.481641
      6.40959      8.54611      7.50000         0.002256     -0.001677      0.484304
      4.27306      8.54611      9.63653         0.005510     -0.003904      0.010740
      6.40959     14.95570      9.63653         0.001203      0.000192      0.008696
      4.27322     14.95584     11.77986        -0.000750     -0.000023      0.000859
      6.41131      8.54497     11.78055        -0.000691      0.001073     -0.003310
      4.27474      8.54605     13.89552        -0.000296     -0.002322     -0.122746
      6.40967     14.95569     13.89798         0.000969      0.000748     -0.124511
      4.27306     10.68264      7.50000         0.002196     -0.002035      0.481774
      6.40959     12.81917      7.50000         0.001283     -0.002096      0.481869
      4.27306     12.81917      9.63653         0.001394     -0.001063      0.008623
      6.40959     10.68264      9.63653         0.004683     -0.005372      0.009843
      4.27313     10.68248     11.77941         0.000168      0.000206     -0.000169
      6.40994     12.81907     11.77957        -0.000269     -0.000150      0.000502
      4.27326     12.81913     13.89789         0.000086     -0.000083     -0.125514
      6.40989     10.68108     13.89450         0.002541     -0.000589     -0.121407
      8.54611      6.40959      7.50000         0.000299      0.000550      0.483804
     10.68264      0.00000      7.50000        -0.000958      0.001714      0.481903
      8.54611      0.00000      9.63653         0.000298      0.005077      0.009847
     10.68264      6.40959      9.63653         0.000996      0.000121      0.013864
      8.54664      6.41056     11.77975         0.000187      0.000687      0.000146
     10.68233      0.00043     11.78005         0.000601      0.000028     -0.000436
      8.54617      0.00101     13.89890         0.000049     -0.001345     -0.126477
     10.67500      6.41106     13.90393        -0.011302      0.000555     -0.074770
      8.54611      2.13653      7.50000         0.000210      0.002981      0.483832
     10.68264      4.27306      7.50000        -0.001773      0.002367      0.484275
      8.54611      4.27306      9.63653         0.000676      0.000566      0.013207
     10.68264      2.13653      9.63653        -0.003556      0.006187      0.010895
      8.54618      2.13835     11.78012        -0.000033     -0.000449     -0.000602
     10.68149      4.27491     11.78065         0.001277     -0.000739     -0.002987
      8.54669      4.28083     13.89873         0.000961      0.010455     -0.087378
     10.68216      2.13830     13.89648        -0.002447     -0.000409     -0.123477
     12.81917      6.40959      7.50000        -0.003070      0.000296      0.484200
     14.95570      0.00000      7.50000        -0.000734      0.000664      0.481841
     12.81917      0.00000      9.63653        -0.001338      0.001557      0.008937
     14.95570      6.40959      9.63653        -0.006272      0.000645      0.009920
     12.81690      6.40969     11.78021         0.000244     -0.000185     -0.001609
     14.95550      0.00025     11.77997         0.001331     -0.000428     -0.000326
     12.81900      0.00038     13.89816        -0.000473     -0.000522     -0.125157
     14.95477      6.40982     13.89853         0.001628      0.000173     -0.126535
     12.81917      2.13653      7.50000        -0.001992      0.002141      0.481826
     14.95570      4.27306      7.50000        -0.002014      0.001316      0.481714
     12.81917      4.27306      9.63653        -0.006036      0.004572      0.010383
     14.95570      2.13653      9.63653        -0.001519      0.001230      0.009013
     12.81888      2.13679     11.77982        -0.000136      0.000834     -0.000483
     14.95535      4.27355     11.77972        -0.000123     -0.000900      0.001563
     12.81743      4.27382     13.89633        -0.000725      0.002026     -0.122385
     14.95542      2.13697     13.89807         0.000375      0.000022     -0.125401
      8.54611     14.95570      7.50000         0.000123     -0.000334      0.481468
     10.68264      8.54611      7.50000        -0.002019     -0.001843      0.484279
      8.54611      8.54611      9.63653        -0.000040      0.001436      0.014118
     10.68264     14.95570      9.63653        -0.001060      0.000615      0.008159
      8.54612     14.95581     11.78053        -0.000248     -0.000071     -0.001500
     10.68110      8.54470     11.78048         0.000184      0.000675     -0.003738
      8.54667      8.53878     13.90517         0.000411     -0.011007     -0.070637
     10.68256     14.95570     13.89817        -0.000574      0.000653     -0.125578
      8.54611     10.68264      7.50000         0.000114     -0.003066      0.484267
     10.68264     12.81917      7.50000        -0.001177     -0.002060      0.481892
      8.54611     12.81917      9.63653        -0.000064     -0.006374      0.009920
     10.68264     10.68264      9.63653        -0.005071     -0.005106      0.009397
      8.54610     10.68030     11.78010        -0.000409      0.000137     -0.001705
     10.68226     12.81923     11.77930         0.000575      0.000438      0.000510
      8.54613     12.81823     13.89851         0.000130      0.001354     -0.126388
     10.68232     10.68139     13.89260        -0.002006     -0.000944     -0.120493
     12.81917     14.95570      7.50000        -0.000938     -0.000130      0.481586
     14.95570      8.54611      7.50000        -0.001973     -0.001019      0.482007
     12.81917      8.54611      9.63653        -0.005046     -0.004822      0.009813
     14.95570     14.95570      9.63653        -0.000227      0.000430      0.009195
     12.81904     14.95588     11.77991         0.000733     -0.000312      0.000488
     14.95564      8.54587     11.77953         0.000063      0.000360     -0.000416
     12.81767      8.54606     13.89343        -0.000664     -0.001584     -0.120887
     14.95579     14.95587     13.89777        -0.000876     -0.000072     -0.125830
     12.81917     10.68264      7.50000        -0.002197     -0.002161      0.481549
     14.95570     12.81917      7.50000        -0.000794     -0.000812      0.481625
     12.81917     12.81917      9.63653        -0.001401     -0.000459      0.007883
     14.95570     10.68264      9.63653        -0.000510     -0.001472      0.007730
     12.81917     10.68259     11.77880         0.000185      0.000726      0.000997
     14.95560     12.81912     11.77975         0.001095      0.001587      0.001003
     12.81903     12.81916     13.89778         0.000223      0.000491     -0.125727
     14.95551     10.68266     13.89791         0.001048      0.000145     -0.125685
      0.00000      6.40959      9.63653         0.000242     -0.000017      0.035115
      2.13653      0.00000      9.63653        -0.000185      0.000125      0.031962
      0.00000      0.00000      7.50000         0.000075     -0.000399     -0.253485
      2.13653      6.40959      7.50000        -0.002526     -0.000281     -0.254167
     17.09220      6.40983     13.94196        -0.000036     -0.000887     -0.146218
      2.13654      0.00016     13.94058        -0.000259     -0.000433     -0.145175
      0.00003      0.00014     11.77387        -0.000026     -0.000053      0.001391
      2.13688      6.40960     11.77450        -0.000394      0.000163      0.004022
      0.00000      2.13653      9.63653         0.000081      0.000081      0.032900
      2.13653      4.27306      9.63653        -0.002079     -0.000844      0.033098
      0.00000      4.27306      7.50000         0.000174     -0.000942     -0.253359
      2.13653      2.13653      7.50000        -0.001111     -0.001121     -0.253433
     17.09222      2.13681     13.94040         0.000123     -0.000659     -0.143477
      2.13667      4.27332     13.94120         0.000444      0.000415     -0.143980
      0.00003      4.27324     11.77421        -0.000169      0.000761      0.000624
      2.13663      2.13659     11.77411         0.000116      0.000779      0.001521
      4.27306      6.40959      9.63653        -0.010593     -0.001185      0.025339
      6.40959      0.00000      9.63653        -0.000942     -0.001891      0.033159
      4.27306      0.00000      7.50000        -0.001146     -0.001008     -0.253433
      6.40959      6.40959      7.50000        -0.002115     -0.000453     -0.255678
      4.27399      6.40995     13.94589        -0.004700     -0.000061     -0.149943
      6.40968      0.00019     13.94117        -0.000003      0.000399     -0.145410
      4.27300      0.00016     11.77409         0.001133      0.000260      0.001577
      6.40588      6.40923     11.77152         0.000538      0.000334      0.001105
      4.27306      2.13653      9.63653        -0.001848     -0.001592      0.032837
      6.40959      4.27306      9.63653        -0.005825     -0.006086      0.026346
      4.27306      4.27306      7.50000        -0.002979     -0.002094     -0.254526
      6.40959      2.13653      7.50000        -0.001936     -0.002994     -0.254509
      4.27297      2.13652     13.94257         0.000819      0.001110     -0.146611
      6.40900      4.27255     13.94271        -0.003638     -0.004482     -0.146869
      4.27260      4.27281     11.77448         0.000688      0.000539      0.001890
      6.40927      2.13618     11.77440         0.000309      0.000634      0.001970
      0.00000     14.95570      9.63653         0.000108      0.000383      0.031283
      2.13653      8.54611      9.63653        -0.004298      0.001079      0.031470
      0.00000      8.54611      7.50000         0.000177      0.000797     -0.253613
      2.13653     14.95570      7.50000        -0.000480      0.000155     -0.253451
     17.09222     14.95584     13.94054         0.000433      0.000331     -0.146391
      2.13659      8.54632     13.94158         0.000218     -0.000782     -0.144104
      0.00005      8.54606     11.77422         0.000035     -0.000491      0.000610
      2.13655     14.95587     11.77384        -0.000042     -0.000142      0.001399
      0.00000     10.68264      9.63653         0.000095      0.000512      0.032888
      2.13653     12.81917      9.63653        -0.000201      0.000609      0.031967
      0.00000     12.81917      7.50000         0.000043      0.000685     -0.253370
      2.13653     10.68264      7.50000        -0.001216      0.001389     -0.253396
     17.09222     10.68272     13.94046         0.000023      0.000745     -0.143729
      2.13651     12.81937     13.94020        -0.000784      0.000595     -0.142960
      0.00006     12.81935     11.77378        -0.000305     -0.000457      0.001517
      2.13643     10.68284     11.77410         0.000452     -0.000641      0.000793
      4.27306     14.95570      9.63653        -0.000158      0.000548      0.032755
      6.40959      8.54611      9.63653        -0.006782      0.005251      0.025639
      4.27306      8.54611      7.50000        -0.003230      0.001810     -0.254666
      6.40959     14.95570      7.50000        -0.000929      0.000414     -0.253419
      4.27319     14.95585     13.94039        -0.000666     -0.000328     -0.143475
      6.40695      8.54850     13.93686        -0.003845      0.002818     -0.144816
      4.27171      8.54660     11.77352         0.001902     -0.000414      0.002393
      6.40970     14.95582     11.77418         0.000639      0.000101      0.000799
      4.27306     10.68264      9.63653        -0.003269      0.003381      0.031147
      6.40959     12.81917      9.63653        -0.001347      0.004669      0.030955
      4.27306     12.81917      7.50000        -0.001345      0.001449     -0.253341
      6.40959     10.68264      7.50000        -0.002313      0.003232     -0.254615
      4.27262     10.68321     13.94231         0.000800     -0.000127     -0.147103
      6.40958     12.81906     13.94125        -0.000076      0.000199     -0.146195
      4.27303     12.81934     11.77405        -0.000345     -0.000403      0.000635
      6.40911     10.68408     11.77349         0.000388     -0.001591      0.002154
      8.54611      6.40959      9.63653        -0.000361     -0.000609      0.025669
     10.68264      0.00000      9.63653         0.001015     -0.002833      0.032495
      8.54611      0.00000      7.50000        -0.000150     -0.002330     -0.254116
     10.68264      6.40959      7.50000         0.001811     -0.000351     -0.255803
      8.54603      6.40966     13.90636        -0.000774     -0.000838     -0.135649
     10.68269      0.00025     13.94153        -0.000597     -0.000129     -0.144146
      8.54610      0.00047     11.77447         0.000095     -0.000887      0.004080
     10.68634      6.40910     11.77152         0.000467      0.000009      0.002108
      8.54611      2.13653      9.63653        -0.000576     -0.010344      0.025740
     10.68264      4.27306      9.63653         0.005379     -0.006654      0.026165
      8.54611      4.27306      7.50000        -0.000293     -0.002264     -0.255632
     10.68264      2.13653      7.50000         0.001765     -0.003157     -0.254625
      8.54625      2.13766     13.94553        -0.000291     -0.004846     -0.151302
     10.68398      4.27158     13.94054         0.002854     -0.004516     -0.146361
      8.54595      4.26949     11.77154         0.000154      0.000486      0.001048
     10.68302      2.13575     11.77402        -0.000147      0.001494      0.002161
     12.81917      6.40959      9.63653         0.010899     -0.001371      0.024431
     14.95570      0.00000      9.63653         0.000240      0.000097      0.032090
     12.81917      0.00000      7.50000         0.001269     -0.001101     -0.253404
     14.95570      6.40959      7.50000         0.002882     -0.000261     -0.254135
     12.81853      6.41001     13.94642         0.005304     -0.000726     -0.148217
     14.95573      0.00016     13.94045         0.000633     -0.000923     -0.144436
     12.81924      0.00010     11.77419        -0.000708      0.000094      0.000655
     14.95543      6.40960     11.77444         0.000044     -0.000237      0.004200
     12.81917      2.13653      9.63653         0.002551     -0.002343      0.032265
     14.95570      4.27306      9.63653         0.003214     -0.001058      0.032193
     12.81917      4.27306      7.50000         0.003188     -0.002273     -0.254569
     14.95570      2.13653      7.50000         0.001331     -0.001199     -0.253378
     12.81940      2.13636     13.94262         0.000001      0.000775     -0.147798
     14.95551      4.27329     13.94134        -0.000220      0.000558     -0.144280
     12.82006      4.27272     11.77415        -0.001032      0.000642      0.001942
     14.95564      2.13657     11.77409         0.000132      0.000450      0.001307
      8.54611     14.95570      9.63653        -0.000017      0.000690      0.035000
     10.68264      8.54611      9.63653         0.005947      0.005404      0.025366
      8.54611      8.54611      7.50000        -0.000176      0.001683     -0.255830
     10.68264     14.95570      7.50000         0.000865      0.000372     -0.253505
      8.54615     14.95572     13.94207         0.000041      0.000103     -0.147126
     10.68627      8.54976     13.93183         0.004039      0.004269     -0.139167
      8.54578      8.54984     11.77143         0.000088      0.000748      0.002214
     10.68252     14.95589     11.77421        -0.000455     -0.000150      0.000667
      8.54611     10.68264      9.63653        -0.000802      0.011155      0.023670
     10.68264     12.81917      9.63653         0.001335      0.006231      0.029761
      8.54611     12.81917      7.50000        -0.000083      0.003027     -0.254144
     10.68264     10.68264      7.50000         0.002223      0.003341     -0.254542
      8.54622     10.68212     13.94635        -0.000519      0.005891     -0.149700
     10.68272     12.81908     13.94101         0.000095      0.000497     -0.146456
      8.54607     12.81903     11.77439        -0.000048     -0.000079      0.004206
     10.68316     10.68464     11.77269        -0.000482     -0.001487      0.002369
     12.81917     14.95570      9.63653         0.000249      0.000624      0.032941
     14.95570      8.54611      9.63653         0.005914      0.001402      0.030073
     12.81917      8.54611      7.50000         0.003312      0.002070     -0.254579
     14.95570     14.95570      7.50000         0.000595      0.000117     -0.253389
     12.81910     14.95583     13.94043         0.000584     -0.000271     -0.143579
     14.95559      8.54640     13.94120        -0.000232     -0.000188     -0.146148
     12.82109      8.54670     11.77280        -0.001409     -0.000703      0.002494
     14.95577     14.95592     11.77378        -0.000489     -0.000582      0.001730
     12.81917     10.68264      9.63653         0.004138      0.004196      0.029699
     14.95570     12.81917      9.63653         0.000414      0.000641      0.031810
     12.81917     12.81917      7.50000         0.001428      0.001438     -0.253223
     14.95570     10.68264      7.50000         0.001347      0.001482     -0.253274
     12.81973     10.68339     13.94237        -0.001331     -0.001012     -0.146526
     14.95584     12.81946     13.94016         0.000123     -0.000064     -0.142928
     12.81933     12.81942     11.77398        -0.000062     -0.000633      0.000613
     14.95585     10.68291     11.77402        -0.000416     -0.000513      0.000686
 -----------------------------------------------------------------------------------
    total drift:                               -0.003023     -0.006815     -0.123636


--------------------------------------------------------------------------------------------------------



  FREE ENERGIE OF THE ION-ELECTRON SYSTEM (eV)
  ---------------------------------------------------
  free  energy   TOTEN  =     -1125.00270340 eV

  energy  without entropy=    -1125.00270340  energy(sigma->0) =    -1125.00270340
 


--------------------------------------------------------------------------------------------------------


    POTLOK:  cpu time      0.7194: real time      0.7220


--------------------------------------------------------------------------------------------------------


     LOOP+:  cpu time    170.7415: real time    171.4897
    4ORBIT:  cpu time      0.0000: real time      0.0000

 total amount of memory used by VASP MPI-rank0   224394. kBytes
=======================================================================

   base      :      30000. kBytes
   nonlr-proj:      60290. kBytes
   fftplans  :      41612. kBytes
   grid      :      58486. kBytes
   one-center:       1087. kBytes
   wavefun   :      32919. kBytes
 
  
  
 General timing and accounting informations for this job:
 ========================================================
  
                  Total CPU time used (sec):      181.827
                            User time (sec):      178.523
                          System time (sec):        3.304
                         Elapsed time (sec):      183.409
  
                   Maximum memory used (kb):      797792.
                   Average memory used (kb):          N/A
  
                          Minor page faults:       306186
                          Major page faults:          105
                 Voluntary context switches:         8593
