 **********************************************************************
                          MRCC program system
 **********************************************************************
 
                              Written by
     Mihaly Kallay, Peter R. Nagy, David Mester, Laszlo Gyevi-Nagy,
        Jozsef Csoka, P. Bernat Szabo, Zoltan Rolik, Gyula Samu,
     Jozsef Csontos, Bence Hegely, Adam Ganyecz, Istvan Ladjanszki,
       Lorant Szegedy, Bence Ladoczki, Klara Petrov, Mate Farkas,
                    Pal D. Mezei, and Reka A. Horvath
 
        Department of Physical Chemistry and Materials Science
            Budapest University of Technology and Economics
                  Budapest P.O.Box 91, H-1521 Hungary
 
                              www.mrcc.hu
 
                      Release date: March 18, 2022

 ************************ 2023-02-05 13:30:22 *************************
 Executing minp...

 Reading input from MINP...
 
 Input file:
 
calc=FNO-CCSD(T)
verbosity=3
mem=220GB
unit=angs
scfiguess=small
scfalg=locfit1
ccmaxit=400
ccsdalg=dfdirect
ccsdthreads=4
ccsdmkl=thr
ptthreads=4
lnoepsv=1e-5
naf_cor=1e-2
basis=aug-cc-pVQZ
basis_sm=def2-SVP
dfbasis_scf=def2-QZVPP-RI-JK
dfbasis_cor=aug-cc-pVQZ-RI
unit=angs
geom=xyz
16

C    34.41670262    34.07107264    10.41543014
C    33.11117461    33.45680459    10.91530835
H    34.24160149    35.00442132     9.86225048
H    34.94674030    33.36940783     9.75379242
H    35.10002891    34.30603621    11.24227357
H    32.42643037    33.26105434    10.07939442
H    32.59136835    34.12756100    11.61262818
H    33.28915165    32.50678735    11.43686767
C    25.97573568    38.29159093    10.41548088
C    24.67017836    37.67729539    10.91529140
H    25.80053312    39.22503006     9.86250154
H    26.50570813    37.58971855     9.75399090
H    26.65931845    38.52667515    11.24209422
H    23.98530395    37.48139737    10.07951373
H    24.15034095    38.34822797    11.61243196
H    24.84823997    36.72719264    11.43663402

--------------------Output has been truncated-------------------------


--------------------Output has been truncated-------------------------


--------------------Output has been truncated-------------------------


--------------------Output has been truncated-------------------------


--------------------Output has been truncated-------------------------


--------------------Output has been truncated-------------------------


--------------------Output has been truncated-------------------------


--------------------Output has been truncated-------------------------


--------------------Output has been truncated-------------------------


--------------------Output has been truncated-------------------------


 
 Reference energy [au]:                      -158.528872414352
 DF-MP2 singlet pair energy [au]:              -0.635453172685
 DF-MP2 triplet pair energy [au]:              -0.153819781707
 DF-SCS-MP2 correlation energy [au]:           -0.813817067791
 DF-SCS-MP2 energy [au]:                     -159.342689482143
 DF-SOS-MP2 correlation energy [au]:           -0.826089124491
 DF-SOS-MP2 energy [au]:                     -159.354961538843
 DF-MP2 correlation energy [au]:               -0.789272954392
 DF-MP2 energy [au]:                         -159.318145368744

 Results in FNO basis:
 
 
 Reference energy [au]:                      -158.528872414352
 DF-MP2 singlet pair energy [au]:              -0.625103801852
 DF-MP2 triplet pair energy [au]:              -0.153247447358
 DF-SCS-MP2 correlation energy [au]:           -0.801207044675
 DF-SCS-MP2 energy [au]:                     -159.330079459027
 DF-SOS-MP2 correlation energy [au]:           -0.812634942408
 DF-SOS-MP2 energy [au]:                     -159.341507356759
 DF-MP2 correlation energy [au]:               -0.778351249210
 DF-MP2 energy [au]:                         -159.307223663561

 Results in NAF basis:
 
 
 Reference energy [au]:                      -158.528872414352
 DF-MP2 singlet pair energy [au]:              -0.625061296155
 DF-MP2 triplet pair energy [au]:              -0.153263197631
 DF-SCS-MP2 correlation energy [au]:           -0.801161287929
 DF-SCS-MP2 energy [au]:                     -159.330033702281
 DF-SOS-MP2 correlation energy [au]:           -0.812579685001
 DF-SOS-MP2 energy [au]:                     -159.341452099353
 DF-MP2 correlation energy [au]:               -0.778324493785
 DF-MP2 energy [au]:                         -159.307196908137

 ************************ 2023-02-05 13:32:53 *************************
 Executing ccsd...

 Allocation of 220.0 Gbytes of memory...

 Direct DF-CCSD(T) calculation
 
 Convergence criterion:  1.0E-06
 
 Number of occupied/virtual/auxiliary orbitals:    14   350  1101
   6894.54 MB is the minimal memory requirement for (T)
   1573.93 MB is the minimal memory requirement for CCSD
 
 Reference energy [au]:            -158.528872414352
 T1 contribution [au]:                0.000000000000
 Same spin MP2 energy [au]:          -0.153255317113
 Opposite spin MP2 energy [au]:      -0.625082539181
 MP2 correlation energy [au]:        -0.778337856293
 Total MP2 energy [au]:            -159.307210270645
 MP2 correction [au]:                -0.010935098099
 
 
 CPU time [min]:     1.640                   Wall time [min]:     0.567
 
 Starting CCSD iterations...
 
                     Residual norm          Energy
 Iteration  1        0.253283045784     -159.343034451525
 Iteration  2        0.062780090760     -159.362205020687
 Iteration  3        0.018449444685     -159.364470687782
 Iteration  4        0.003739310612     -159.364484419031
 Iteration  5        0.000791352333     -159.364496136032
 Iteration  6        0.000221485180     -159.364500191473
 Iteration  7        0.000052383697     -159.364499732441
 Iteration  8        0.000014115140     -159.364500458584
 Iteration  9        0.000002806354     -159.364500414849
 
 CCSD iteration has converged in  9 steps.
    59038.48 MB memory was utilized by CCSD
 
 T1 diagnostic:      8.231E-03            D1 diagnostic:      1.428E-02
 
 T1 contribution [au]:                                  0.000000000000
 PPL energy contribution [au]:                          0.217870533327
 Scaled PPL energy contribution [au]:                   0.220950961707

 OS-PPL energy contribution [au]:                       0.191083941446
 Scaled OS-PPL energy contribution [au]:                0.194274583030
 SS-PPL energy contribution [au]:                       0.026786591881
 Scaled SS-PPL energy contribution [au]:                0.026882891561

 Opposite spin CCSD energy [au]:                       -0.690284886879
 Same spin CCSD energy [au]:                           -0.145359014850
 CCSD correlation energy [au]:                         -0.835643901729
 CCSD correlation energy + MP2 correction [au]:        -0.846578999827
 CCSD correlation energy + MP2 + PPL corr. [au]:       -0.843498571447
 Total CCSD energy [au]:                             -159.364516316080
 Total CCSD energy + MP2 correction [au]:            -159.375451414179
 Total CCSD energy + MP2 + PPL corr. [au]:           -159.372370985799
 
 CPU time [min]:   154.608                   Wall time [min]:     5.446
 
 Calculation of (T) correction...
 
 
     8827.33 MB memory is utilized for (T)

 0%       25%       50%       75%       100%
 |---------|---------|---------|---------| 
 
 (T) correction [au]:                                    -0.029527298833
 (T*) correction [au]:                                   -0.029942136563
 (T+) correction [au]:                                   -0.029935090076
 CCSD(T) correlation energy [au]:                        -0.865171200562
 CCSD(T) correlation energy + MP2 correction [au]:       -0.876106298660
 CCSD(T+) correlation en. + MP2 + PPL corr. [au]:        -0.873433661523
 Total CCSD(T) energy [au]:                            -159.394043614913
 Total CCSD(T) energy + MP2 correction [au]:           -159.404978713012
 Total CCSD(T+) energy + MP2 + PPL corr. [au]:         -159.402306075874
 
 CPU time [min]:   276.272                   Wall time [min]:     9.078
 
 ************************ 2023-02-05 13:41:58 *************************
                      Normal termination of mrcc.
 **********************************************************************
