 vasp.6.3.0 20Jan22 (build Apr  1 2022 16:44:48) complex                         
 executed on        HPECrayEX_GCC date 2022.11.13  00:55:34
 running  512 mpi-ranks, with    1 threads/rank
 distrk:  each k-point on  512 cores,    1 groups
 distr:  one band on NCORE=   8 cores,   64 groups


--------------------------------------------------------------------------------------------------------


 INCAR:
   SYSTEM = MgO-rocksalt
   ISMEAR = 0
   SIGMA = 0.05
   EDIFF = 1E-6
   ALGO = ALL
   ISTART = 0
   IBRION = -1
   NSW = 0
   ISYM = 0
   DIPOL = 0.5 0.5 0.5
   IDIPOL = 3
   LDIPOL = .TRUE.
   GGA = MK
   LUSE_VDW = .TRUE.
   PARAM1 = 0.1234
   PARAM2 = 0.711357
   ZAB_VDW = -1.8867
   AGGAC = 0.0
   ENCUT = 600
   PREC = Accurate
   LASPH = .TRUE.
   LREAL = .FALSE.
   ISPIN = 2
   MAGMOM = 1.0 0.0 0.0 0.0 0.0 0.0 0.0 0.0 0.0 0.0 0.0 0.0 0.0 0.0 0.0 0.0 0.0 0.0 0.0 0.0 0.0 0.0 0.0 0.0 0.0 0.0 0.0 0.0 0.0 0.0 0.0 0.0 0.0 0.0 0.0 0.0 0.0 0.0 0.0 0.0 0.0 0.0 0.0 0.0 0.0 0.0 0.0 0.0 0.0 0.0 0.0 0.0 0.0 0.0 0.0 0.0 0.0 0.0 0.0 0.0 0.0 0.0 0.0 0.0 0.0 0.0
   NELM = 200
   NELMIN = 8
   NCORE = 8
   KPAR = 1
   LWAVE = .FALSE.
   LCHARG = .FALSE.

 POTCAR:    PAW_PBE N 08Apr2002                   
 POTCAR:    PAW_PBE O 08Apr2002                   
 POTCAR:    PAW_PBE Mg_pv 13Apr2007               
 POTCAR:    PAW_PBE O 08Apr2002                   
 -----------------------------------------------------------------------------
|                                                                             |
|               ----> ADVICE to this user running VASP <----                  |
|                                                                             |
|     You have switched on vdW-DFT.                                           |
|     This routine was written and supplied by Jiri Klimes. We recommend      |
|     that you carefully read and cite the following publications:            |
|       J. Klimes, D.R. Bowler, A. Michelides                                 |
|          J. Phys.: Cond Matt. 22 022201 (2010)                              |
|       J. Klimes, D.R. Bowler, A. Michelides                                 |
|          Phys. Rev. B. 83, 195131 (2011)                                    |
|     and references therein.                                                 |
|                                                                             |
 -----------------------------------------------------------------------------

 POTCAR:    PAW_PBE N 08Apr2002                   
   SHA256 =  e053789ff3a61a86a1b75d8a110fcc91f86041011e7b0817c7c99e4e8a6349d7 N/POTCAR              
   COPYR  = (c) Copyright 08Apr2002 Georg Kresse                                                    
   COPYR  = This file is part of the software VASP. Any use, copying, and all other rights are regul
   COPYR  = If you do not have a valid VASP license, you may not use, copy or distribute this file. 
   VRHFIN =N: s2p3                                                                                  
   LEXCH  = PE                                                                                      
   EATOM  =   264.5486 eV,   19.4438 Ry                                                             
                                                                                                    
   TITEL  = PAW_PBE N 08Apr2002                                                                     
   LULTRA =        F    use ultrasoft PP ?                                                          
   IUNSCR =        1    unscreen: 0-lin 1-nonlin 2-no                                               
   RPACOR =    1.200    partial core radius                                                         
   POMASS =   14.001; ZVAL   =    5.000    mass and valenz                                          
   RCORE  =    1.500    outmost cutoff radius                                                       
   RWIGS  =    1.400; RWIGS  =    0.741    wigner-seitz radius (au A)                               
   ENMAX  =  400.000; ENMIN  =  300.000 eV                                                          
   ICORE  =        2    local potential                                                             
   LCOR   =        T    correct aug charges                                                         
   LPAW   =        T    paw PP                                                                      
   EAUG   =  627.112                                                                                
   DEXC   =    0.000                                                                                
   RMAX   =    1.529    core radius for proj-oper                                                   
   RAUG   =    1.300    factor for augmentation sphere                                              
   RDEP   =    1.514    radius for radial grids                                                     
   RDEPT  =    1.338    core radius for aug-charge                                                  
                                                                                                    
   Atomic configuration                                                                             
    4 entries                                                                                       
     n  l   j            E        occ.                                                              
     1  0  0.50      -384.7179   2.0000                                                             
     2  0  0.50       -18.5828   2.0000                                                             
     2  1  0.50        -7.0898   3.0000                                                             
     3  2  1.50        -6.8029   0.0000                                                             
   Description                                                                                      
     l       E           TYP  RCUT    TYP  RCUT                                                     
     0    -18.5828119     23  1.200                                                                 
     0    -13.5018863     23  1.200                                                                 
     1     -7.0897853     23  1.500                                                                 
     1      9.5240782     23  1.500                                                                 
     2     -6.8029130      7  1.500                                                                 
  local pseudopotential read in
  partial core-charges read in
  partial kinetic energy density read in
  atomic valenz-charges read in
  non local Contribution for L=           0  read in
    real space projection operators read in
  non local Contribution for L=           0  read in
    real space projection operators read in
  non local Contribution for L=           1  read in
    real space projection operators read in
  non local Contribution for L=           1  read in
    real space projection operators read in
    PAW grid and wavefunctions read in

   number of l-projection  operators is LMAX  =           4
   number of lm-projection operators is LMMAX =           8

 POTCAR:    PAW_PBE O 08Apr2002                   
   SHA256 =  818f92134a0a090dccd8ba1447fa70422a3b330e708bb4f08108d8ae51209ddf O/POTCAR              
   COPYR  = (c) Copyright 08Apr2002 Georg Kresse                                                    
   COPYR  = This file is part of the software VASP. Any use, copying, and all other rights are regul
   COPYR  = If you do not have a valid VASP license, you may not use, copy or distribute this file. 
   VRHFIN =O: s2p4                                                                                  
   LEXCH  = PE                                                                                      
   EATOM  =   432.3788 eV,   31.7789 Ry                                                             
                                                                                                    
   TITEL  = PAW_PBE O 08Apr2002                                                                     
   LULTRA =        F    use ultrasoft PP ?                                                          
   IUNSCR =        1    unscreen: 0-lin 1-nonlin 2-no                                               
   RPACOR =    1.200    partial core radius                                                         
   POMASS =   16.000; ZVAL   =    6.000    mass and valenz                                          
   RCORE  =    1.520    outmost cutoff radius                                                       
   RWIGS  =    1.550; RWIGS  =    0.820    wigner-seitz radius (au A)                               
   ENMAX  =  400.000; ENMIN  =  300.000 eV                                                          
   ICORE  =        2    local potential                                                             
   LCOR   =        T    correct aug charges                                                         
   LPAW   =        T    paw PP                                                                      
   EAUG   =  605.392                                                                                
   DEXC   =    0.000                                                                                
   RMAX   =    1.553    core radius for proj-oper                                                   
   RAUG   =    1.300    factor for augmentation sphere                                              
   RDEP   =    1.550    radius for radial grids                                                     
   RDEPT  =    1.329    core radius for aug-charge                                                  
                                                                                                    
   Atomic configuration                                                                             
    4 entries                                                                                       
     n  l   j            E        occ.                                                              
     1  0  0.50      -514.6923   2.0000                                                             
     2  0  0.50       -23.9615   2.0000                                                             
     2  1  0.50        -9.0305   4.0000                                                             
     3  2  1.50        -9.5241   0.0000                                                             
   Description                                                                                      
     l       E           TYP  RCUT    TYP  RCUT                                                     
     0    -23.9615318     23  1.200                                                                 
     0     -9.5240782     23  1.200                                                                 
     1     -9.0304911     23  1.520                                                                 
     1      8.1634956     23  1.520                                                                 
     2     -9.5240782      7  1.500                                                                 
  local pseudopotential read in
  partial core-charges read in
  partial kinetic energy density read in
  kinetic energy density of atom read in
  atomic valenz-charges read in
  non local Contribution for L=           0  read in
    real space projection operators read in
  non local Contribution for L=           0  read in
    real space projection operators read in
  non local Contribution for L=           1  read in
    real space projection operators read in
  non local Contribution for L=           1  read in
    real space projection operators read in
    PAW grid and wavefunctions read in

   number of l-projection  operators is LMAX  =           4
   number of lm-projection operators is LMMAX =           8

 POTCAR:    PAW_PBE Mg_pv 13Apr2007               
   SHA256 =  f474ac0dd33840b9ae76c01d57fea79fdf77cdfbb07d5ade72c65f83c709b62b Mg_pv/POTCAR          
   COPYR  = (c) Copyright 13Apr2007 Georg Kresse                                                    
   COPYR  = This file is part of the software VASP. Any use, copying, and all other rights are regul
   COPYR  = If you do not have a valid VASP license, you may not use, copy or distribute this file. 
   VRHFIN =Mg: p6s2                                                                                 
   LEXCH  = PE                                                                                      
   EATOM  =  1056.7344 eV,   77.6678 Ry                                                             
                                                                                                    
   TITEL  = PAW_PBE Mg_pv 13Apr2007                                                                 
   LULTRA =        F    use ultrasoft PP ?                                                          
   IUNSCR =        1    unscreen: 0-lin 1-nonlin 2-no                                               
   RPACOR =    1.500    partial core radius                                                         
   POMASS =   24.305; ZVAL   =    8.000    mass and valenz                                          
   RCORE  =    2.000    outmost cutoff radius                                                       
   RWIGS  =    2.000; RWIGS  =    1.058    wigner-seitz radius (au A)                               
   ENMAX  =  403.929; ENMIN  =  302.947 eV                                                          
   RCLOC  =    1.506    cutoff for local pot                                                        
   LCOR   =        T    correct aug charges                                                         
   LPAW   =        T    paw PP                                                                      
   EAUG   =  758.780                                                                                
   DEXC   =    0.000                                                                                
   RMAX   =    2.045    core radius for proj-oper                                                   
   RAUG   =    1.300    factor for augmentation sphere                                              
   RDEP   =    2.025    radius for radial grids                                                     
   RDEPT  =    1.557    core radius for aug-charge                                                  
                                                                                                    
   Atomic configuration                                                                             
    5 entries                                                                                       
     n  l   j            E        occ.                                                              
     1  0  0.50     -1259.6230   2.0000                                                             
     2  0  0.50       -79.8442   2.0000                                                             
     2  1  1.50       -46.6121   6.0000                                                             
     3  0  0.50        -4.7055   2.0000                                                             
     3  2  1.50        -1.3606   0.0000                                                             
   Description                                                                                      
     l       E           TYP  RCUT    TYP  RCUT                                                     
     1    -46.6121073     23  1.600                                                                 
     1      2.7211652     23  1.600                                                                 
     0     -4.7054661     23  2.000                                                                 
     0     61.2262170     23  2.000                                                                 
     2     -1.3605826     23  2.000                                                                 
  local pseudopotential read in
  partial core-charges read in
  partial kinetic energy density read in
  atomic valenz-charges read in
  non local Contribution for L=           1  read in
    real space projection operators read in
  non local Contribution for L=           1  read in
    real space projection operators read in
  non local Contribution for L=           0  read in
    real space projection operators read in
  non local Contribution for L=           0  read in
    real space projection operators read in
  non local Contribution for L=           2  read in
    real space projection operators read in
    PAW grid and wavefunctions read in

   number of l-projection  operators is LMAX  =           5
   number of lm-projection operators is LMMAX =          13

 POTCAR:    PAW_PBE O 08Apr2002                   
   SHA256 =  818f92134a0a090dccd8ba1447fa70422a3b330e708bb4f08108d8ae51209ddf O/POTCAR              
   COPYR  = (c) Copyright 08Apr2002 Georg Kresse                                                    
   COPYR  = This file is part of the software VASP. Any use, copying, and all other rights are regul
   COPYR  = If you do not have a valid VASP license, you may not use, copy or distribute this file. 
   VRHFIN =O: s2p4                                                                                  
   LEXCH  = PE                                                                                      
   EATOM  =   432.3788 eV,   31.7789 Ry                                                             
                                                                                                    
   TITEL  = PAW_PBE O 08Apr2002                                                                     
   LULTRA =        F    use ultrasoft PP ?                                                          
   IUNSCR =        1    unscreen: 0-lin 1-nonlin 2-no                                               
   RPACOR =    1.200    partial core radius                                                         
   POMASS =   16.000; ZVAL   =    6.000    mass and valenz                                          
   RCORE  =    1.520    outmost cutoff radius                                                       
   RWIGS  =    1.550; RWIGS  =    0.820    wigner-seitz radius (au A)                               
   ENMAX  =  400.000; ENMIN  =  300.000 eV                                                          
   ICORE  =        2    local potential                                                             
   LCOR   =        T    correct aug charges                                                         
   LPAW   =        T    paw PP                                                                      
   EAUG   =  605.392                                                                                
   DEXC   =    0.000                                                                                
   RMAX   =    1.553    core radius for proj-oper                                                   
   RAUG   =    1.300    factor for augmentation sphere                                              
   RDEP   =    1.550    radius for radial grids                                                     
   RDEPT  =    1.329    core radius for aug-charge                                                  
                                                                                                    
   Atomic configuration                                                                             
    4 entries                                                                                       
     n  l   j            E        occ.                                                              
     1  0  0.50      -514.6923   2.0000                                                             
     2  0  0.50       -23.9615   2.0000                                                             
     2  1  0.50        -9.0305   4.0000                                                             
     3  2  1.50        -9.5241   0.0000                                                             
   Description                                                                                      
     l       E           TYP  RCUT    TYP  RCUT                                                     
     0    -23.9615318     23  1.200                                                                 
     0     -9.5240782     23  1.200                                                                 
     1     -9.0304911     23  1.520                                                                 
     1      8.1634956     23  1.520                                                                 
     2     -9.5240782      7  1.500                                                                 
  local pseudopotential read in
  partial core-charges read in
  partial kinetic energy density read in
  kinetic energy density of atom read in
  atomic valenz-charges read in
  non local Contribution for L=           0  read in
    real space projection operators read in
  non local Contribution for L=           0  read in
    real space projection operators read in
  non local Contribution for L=           1  read in
    real space projection operators read in
  non local Contribution for L=           1  read in
    real space projection operators read in
    PAW grid and wavefunctions read in

   number of l-projection  operators is LMAX  =           4
   number of lm-projection operators is LMMAX =           8

 -----------------------------------------------------------------------------
|                                                                             |
|               ----> ADVICE to this user running VASP <----                  |
|                                                                             |
|     You have a (more or less) 'large supercell' and for larger cells it     |
|     might be more efficient to use real-space projection operators.         |
|     Therefore, try LREAL= Auto in the INCAR file.                           |
|     Mind: For very accurate calculation, you might also keep the            |
|     reciprocal projection scheme (i.e. LREAL=.FALSE.).                      |
|                                                                             |
 -----------------------------------------------------------------------------

 -----------------------------------------------------------------------------
|                                                                             |
|               ----> ADVICE to this user running VASP <----                  |
|                                                                             |
|     You enforced a specific xc type in the INCAR file but a different       |
|     type was found in the POTCAR file.                                      |
|     I HOPE YOU KNOW WHAT YOU ARE DOING!                                     |
|                                                                             |
 -----------------------------------------------------------------------------

  PAW_PBE N 08Apr2002                   :
 energy of atom  1       EATOM= -264.5486
 kinetic energy error for atom=    0.0103 (will be added to EATOM!!)
  PAW_PBE O 08Apr2002                   :
 energy of atom  2       EATOM= -432.3788
 kinetic energy error for atom=    0.0168 (will be added to EATOM!!)
  PAW_PBE Mg_pv 13Apr2007               :
 energy of atom  3       EATOM=-1056.7344
 kinetic energy error for atom=    0.0221 (will be added to EATOM!!)
  PAW_PBE O 08Apr2002                   :
 energy of atom  4       EATOM= -432.3788
 kinetic energy error for atom=    0.0168 (will be added to EATOM!!)


 POSCAR:  N  O Mg  O
  positions in direct lattice
  No initial velocities read in
 exchange correlation table for  LEXCH =       43
   RHO(1)=    0.500       N(1)  =     2000
   RHO(2)=  100.500       N(2)  =     4000



--------------------------------------------------------------------------------------------------------


 ion  position               nearest neighbor table
   1  0.500  0.500  0.766-   2 1.18
   2  0.500  0.500  0.821-   1 1.18
   3  0.000  0.750  0.350-  35 2.14  37 2.14  38 2.14  45 2.14  54 2.14
   4  0.250  0.000  0.350-  36 2.14  37 2.14  38 2.14  46 2.14  53 2.14
   5  0.000  0.000  0.450-  37 2.14  36 2.14  35 2.14  43 2.14  52 2.14  41 2.14
   6  0.250  0.750  0.450-  38 2.14  36 2.14  35 2.14  44 2.14  51 2.14  42 2.14
   7  1.000  0.750  0.550-  58 2.14  49 2.14  42 2.14  41 2.14  35 2.15  39 2.16
   8  0.250  0.000  0.550-  50 2.14  57 2.14  42 2.14  41 2.14  36 2.15  40 2.16
   9  0.000  0.000  0.650-  41 2.13  40 2.14  56 2.14  47 2.14  39 2.14
  10  0.250  0.750  0.649-  42 2.12  40 2.13  39 2.13  55 2.14  48 2.14
  11  0.000  0.250  0.350-  43 2.14  37 2.14  45 2.14  46 2.14  62 2.14
  12  0.250  0.500  0.350-  44 2.14  38 2.14  45 2.14  46 2.14  61 2.14
  13  0.000  0.500  0.450-  45 2.14  43 2.14  44 2.14  35 2.14  60 2.14  49 2.14
  14  0.250  0.250  0.450-  46 2.14  43 2.14  44 2.14  36 2.14  59 2.14  50 2.14
  15  0.000  0.250  0.550-  50 2.14  49 2.14  66 2.14  41 2.14  43 2.15  47 2.16
  16  0.250  0.500  0.550-  65 2.13  50 2.14  42 2.14  49 2.14  44 2.15  48 2.16
  17  0.000  0.500  0.649-  49 2.13  48 2.13  64 2.13  47 2.14  39 2.14
  18  0.250  0.250  0.650-  50 2.13  40 2.13  47 2.13  63 2.14  48 2.14
  19  0.500  0.750  0.350-  51 2.14  38 2.14  53 2.14  54 2.14  61 2.14
  20  0.750  0.000  0.350-  52 2.14  37 2.14  53 2.14  54 2.14  62 2.14
  21  0.500  0.000  0.450-  53 2.14  51 2.14  52 2.14  36 2.14  59 2.14  57 2.14
  22  0.750  0.750  0.450-  54 2.14  51 2.14  52 2.14  35 2.14  60 2.14  58 2.14
  23  0.500  0.750  0.550-  65 2.13  58 2.14  42 2.14  57 2.14  51 2.15  55 2.16
  24  0.750  1.000  0.550-  58 2.14  57 2.14  66 2.14  41 2.14  52 2.15  56 2.16
  25  0.500  0.000  0.649-  57 2.13  63 2.13  55 2.13  40 2.14  56 2.14
  26  0.750  0.750  0.650-  58 2.13  56 2.13  39 2.13  55 2.14  64 2.14
  27  0.500  0.250  0.350-  59 2.14  53 2.14  46 2.14  61 2.14  62 2.14
  28  0.750  0.500  0.350-  60 2.14  54 2.14  45 2.14  61 2.14  62 2.14
  29  0.500  0.500  0.450-  61 2.14  51 2.14  59 2.14  60 2.14  44 2.14  65 2.15
  30  0.750  0.250  0.450-  62 2.14  52 2.14  59 2.14  60 2.14  43 2.14  66 2.14
  31  0.500  0.250  0.550-  65 2.13  50 2.14  66 2.14  57 2.14  59 2.15  63 2.16
  32  0.750  0.500  0.550-  65 2.13  58 2.14  66 2.14  49 2.14  60 2.15  64 2.16
  33  0.500  0.500  0.652-  48 2.14  64 2.14  63 2.14  55 2.14  65 2.17
  34  0.750  0.250  0.649-  66 2.12  56 2.13  47 2.13  63 2.14  64 2.14
  35  0.000  0.750  0.450-   3 2.14   5 2.14   6 2.14  13 2.14  22 2.14   7 2.15
  36  0.250  0.000  0.450-   4 2.14   5 2.14   6 2.14  14 2.14  21 2.14   8 2.15
  37  0.000  0.000  0.350-   5 2.14   4 2.14   3 2.14  11 2.14  20 2.14
  38  0.250  0.750  0.350-   6 2.14   4 2.14   3 2.14  12 2.14  19 2.14
  39  1.000  0.750  0.651-  10 2.13  26 2.13   9 2.14  17 2.14   7 2.16
  40  0.250  0.000  0.651-  10 2.13  18 2.13   9 2.14  25 2.14   8 2.16
  41  1.000  1.000  0.550-   9 2.13  24 2.14   8 2.14   7 2.14  15 2.14   5 2.14
  42  0.250  0.750  0.550-  10 2.12   7 2.14   8 2.14  16 2.14  23 2.14   6 2.14
  43  0.000  0.250  0.450-  11 2.14   5 2.14  13 2.14  14 2.14  30 2.14  15 2.15
  44  0.250  0.500  0.450-  12 2.14   6 2.14  13 2.14  14 2.14  29 2.14  16 2.15
  45  0.000  0.500  0.350-  13 2.14  11 2.14  12 2.14   3 2.14  28 2.14
  46  0.250  0.250  0.350-  14 2.14  11 2.14  12 2.14   4 2.14  27 2.14
  47  0.000  0.250  0.651-  34 2.13  18 2.13   9 2.14  17 2.14  15 2.16
  48  0.249  0.500  0.651-  17 2.13  10 2.14  18 2.14  33 2.14  16 2.16
  49  0.000  0.500  0.550-  17 2.13  15 2.14   7 2.14  13 2.14  16 2.14  32 2.14
  50  0.250  0.250  0.550-  18 2.13  15 2.14   8 2.14  16 2.14  31 2.14  14 2.14
  51  0.500  0.750  0.450-  19 2.14   6 2.14  21 2.14  22 2.14  29 2.14  23 2.15
  52  0.750  0.000  0.450-  20 2.14   5 2.14  21 2.14  22 2.14  30 2.14  24 2.15
  53  0.500  0.000  0.350-  21 2.14  19 2.14  20 2.14   4 2.14  27 2.14
  54  0.750  0.750  0.350-  22 2.14  19 2.14  20 2.14   3 2.14  28 2.14
  55  0.500  0.751  0.651-  25 2.13  10 2.14  26 2.14  33 2.14  23 2.16
  56  0.750  1.000  0.651-  34 2.13  26 2.13   9 2.14  25 2.14  24 2.16
  57  0.500  0.000  0.550-  25 2.13  24 2.14   8 2.14  21 2.14  31 2.14  23 2.14
  58  0.750  0.750  0.550-  26 2.13   7 2.14  24 2.14  32 2.14  23 2.14  22 2.14
  59  0.500  0.250  0.450-  27 2.14  21 2.14  14 2.14  29 2.14  30 2.14  31 2.15
  60  0.750  0.500  0.450-  28 2.14  22 2.14  13 2.14  29 2.14  30 2.14  32 2.15
  61  0.500  0.500  0.350-  29 2.14  19 2.14  27 2.14  28 2.14  12 2.14
  62  0.750  0.250  0.350-  30 2.14  20 2.14  27 2.14  28 2.14  11 2.14
  63  0.500  0.249  0.651-  25 2.13  34 2.14  18 2.14  33 2.14  31 2.16
  64  0.751  0.500  0.651-  17 2.13  34 2.14  26 2.14  33 2.14  32 2.16
  65  0.500  0.500  0.550-  16 2.13  32 2.13  31 2.13  23 2.13  29 2.15  33 2.17
  66  0.750  0.250  0.550-  34 2.12  15 2.14  24 2.14  32 2.14  31 2.14  30 2.14


IMPORTANT INFORMATION: All symmetrisations will be switched off!
NOSYMM: (Re-)initialisation of all symmetry stuff for point group C_1.


----------------------------------------------------------------------------------------

                                     Primitive cell                                     

  volume of cell :    1563.6717

  direct lattice vectors                    reciprocal lattice vectors
     8.546113626  0.000000000  0.000000000     0.117012252  0.000000000  0.000000000
     0.000000000  8.546113626  0.000000000     0.000000000  0.117012252  0.000000000
     0.000000000  0.000000000 21.409585219     0.000000000  0.000000000  0.046708051

  length of vectors
     8.546113626  8.546113626 21.409585219     0.117012252  0.117012252  0.046708051

  position of ions in fractional coordinates (direct lattice)
     0.500000046  0.500000039  0.765652354
     0.499999949  0.499999929  0.820641961
     0.000000000  0.750000000  0.350310383
     0.250000000  0.000000000  0.350310383
     0.000000000  0.000000000  0.450103461
     0.250000000  0.750000000  0.450103461
     0.999893820  0.749954275  0.550323455
     0.250045644  0.000106188  0.550323218
     0.000000003  0.000000004  0.649520562
     0.249562891  0.750438804  0.649261804
     0.000000000  0.250000000  0.350310383
     0.250000000  0.500000000  0.350310383
     0.000000000  0.500000000  0.450103461
     0.250000000  0.250000000  0.450103461
     0.000106185  0.250045725  0.550323448
     0.250469081  0.500018785  0.550485322
     0.000000002  0.499999992  0.649484959
     0.249865881  0.249864175  0.649561989
     0.500000000  0.750000000  0.350310383
     0.750000000  0.000000000  0.350310383
     0.500000000  0.000000000  0.450103461
     0.750000000  0.750000000  0.450103461
     0.499981206  0.749531432  0.550485477
     0.749954353  0.999893820  0.550323226
     0.499999992  0.000000002  0.649483998
     0.750134115  0.750135821  0.649561974
     0.500000000  0.250000000  0.350310383
     0.750000000  0.500000000  0.350310383
     0.500000000  0.500000000  0.450103461
     0.750000000  0.250000000  0.450103461
     0.500018779  0.250468567  0.550485457
     0.749530914  0.499981207  0.550485342
     0.499999989  0.499999989  0.651644233
     0.750437103  0.249561192  0.649261805
     0.000000000  0.750000000  0.450103461
     0.250000000  0.000000000  0.450103461
     0.000000000  0.000000000  0.350310383
     0.250000000  0.750000000  0.350310383
     0.999909135  0.750215773  0.651410347
     0.249783456  0.000090865  0.651410081
     0.999999998  0.999999997  0.550061661
     0.249907616  0.750091470  0.550081592
     0.000000000  0.250000000  0.450103461
     0.250000000  0.500000000  0.450103461
     0.000000000  0.500000000  0.350310383
     0.250000000  0.250000000  0.350310383
     0.000090872  0.249784227  0.651410341
     0.249086439  0.500312904  0.651321586
     0.000000004  0.500000000  0.550078461
     0.250032923  0.250033826  0.550159857
     0.500000000  0.750000000  0.450103461
     0.750000000  0.000000000  0.450103461
     0.500000000  0.000000000  0.350310383
     0.750000000  0.750000000  0.350310383
     0.499687120  0.750915546  0.651319077
     0.750216541  0.999909144  0.651410086
     0.500000001  0.000000003  0.550077539
     0.749967080  0.749966179  0.550159864
     0.500000000  0.250000000  0.450103461
     0.750000000  0.500000000  0.450103461
     0.500000000  0.500000000  0.350310383
     0.750000000  0.250000000  0.350310383
     0.500312863  0.249084455  0.651319091
     0.750913555  0.499687079  0.651321572
     0.499999992  0.499999991  0.550476767
     0.750092376  0.249908521  0.550081592

  ion indices of the primitive-cell ions
   primitive index   ion index
                 1           1
                 2           2
                 3           3
                 4           4
                 5           5
                 6           6
                 7           7
                 8           8
                 9           9
                10          10
                11          11
                12          12
                13          13
                14          14
                15          15
                16          16
                17          17
                18          18
                19          19
                20          20
                21          21
                22          22
                23          23
                24          24
                25          25
                26          26
                27          27
                28          28
                29          29
                30          30
                31          31
                32          32
                33          33
                34          34
                35          35
                36          36
                37          37
                38          38
                39          39
                40          40
                41          41
                42          42
                43          43
                44          44
                45          45
                46          46
                47          47
                48          48
                49          49
                50          50
                51          51
                52          52
                53          53
                54          54
                55          55
                56          56
                57          57
                58          58
                59          59
                60          60
                61          61
                62          62
                63          63
                64          64
                65          65
                66          66

----------------------------------------------------------------------------------------



 KPOINTS: pymatgen v2020.8.13 with grid density = 

Automatic generation of k-mesh.
 Grid dimensions read from file:
 generate k-points for:    2    2    1

 Generating k-lattice:

  Cartesian coordinates                     Fractional coordinates (reciprocal lattice)
     0.058506126  0.000000000  0.000000000     0.500000000  0.000000000  0.000000000
     0.000000000  0.058506126  0.000000000     0.000000000  0.500000000  0.000000000
     0.000000000  0.000000000  0.046708051     0.000000000  0.000000000  1.000000000

  Length of vectors
     0.058506126  0.058506126  0.046708051

  Shift w.r.t. Gamma in fractional coordinates (k-lattice)
     0.000000000  0.000000000  0.000000000

 
 Subroutine IBZKPT returns following result:
 ===========================================
 
 Found      4 irreducible k-points:
 
 Following reciprocal coordinates:
            Coordinates               Weight
  0.000000  0.000000  0.000000      1.000000
  0.500000  0.000000  0.000000      1.000000
  0.000000  0.500000  0.000000      1.000000
  0.500000  0.500000  0.000000      1.000000
 
 Following cartesian coordinates:
            Coordinates               Weight
  0.000000  0.000000  0.000000      1.000000
  0.058506  0.000000  0.000000      1.000000
  0.000000  0.058506  0.000000      1.000000
  0.058506  0.058506  0.000000      1.000000
 


--------------------------------------------------------------------------------------------------------




 Dimension of arrays:
   k-points           NKPTS =      4   k-points in BZ     NKDIM =      4   number of bands    NBANDS=    320
   number of dos      NEDOS =    301   number of ions     NIONS =     66
   non local maximal  LDIM  =      5   non local SUM 2l+1 LMDIM =     13
   total plane-waves  NPLWV = 882000
   max r-space proj   IRMAX =      1   max aug-charges    IRDMAX=  11315
   dimension x,y,z NGX =    70 NGY =   70 NGZ =  180
   dimension x,y,z NGXF=   140 NGYF=  140 NGZF=  360
   support grid    NGXF=   140 NGYF=  140 NGZF=  360
   ions per type =               1   1  32  32
   NGX,Y,Z   is equivalent  to a cutoff of  13.62, 13.62, 13.98 a.u.
   NGXF,Y,Z  is equivalent  to a cutoff of  27.23, 27.23, 27.95 a.u.

 SYSTEM =  MgO-rocksalt                            
 POSCAR =   N  O Mg  O                             

--------------------------------------------------------------------------------------------------------


  energy-cutoff  :      600.00
  volume of cell :     1563.67
      direct lattice vectors                 reciprocal lattice vectors
     8.546113626  0.000000000  0.000000000     0.117012252  0.000000000  0.000000000
     0.000000000  8.546113626  0.000000000     0.000000000  0.117012252  0.000000000
     0.000000000  0.000000000 21.409585219     0.000000000  0.000000000  0.046708051

  length of vectors
     8.546113626  8.546113626 21.409585219     0.117012252  0.117012252  0.046708051



 k-points in units of 2pi/SCALE and weight: pymatgen v2020.8.13 with grid density = 
   0.00000000  0.00000000  0.00000000       0.250
   0.05850613  0.00000000  0.00000000       0.250
   0.00000000  0.05850613  0.00000000       0.250
   0.05850613  0.05850613  0.00000000       0.250

 k-points in reciprocal lattice and weights: pymatgen v2020.8.13 with grid density = 
   0.00000000  0.00000000  0.00000000       0.250
   0.50000000  0.00000000  0.00000000       0.250
   0.00000000  0.50000000  0.00000000       0.250
   0.50000000  0.50000000  0.00000000       0.250

 position of ions in fractional coordinates (direct lattice) 
   0.50000005  0.50000004  0.76565235
   0.49999995  0.49999993  0.82064196
   0.00000000  0.75000000  0.35031038
   0.25000000  0.00000000  0.35031038
   0.00000000  0.00000000  0.45010346
   0.25000000  0.75000000  0.45010346
   0.99989382  0.74995428  0.55032345
   0.25004564  0.00010619  0.55032322
   0.00000000  0.00000000  0.64952056
   0.24956289  0.75043880  0.64926180
   0.00000000  0.25000000  0.35031038
   0.25000000  0.50000000  0.35031038
   0.00000000  0.50000000  0.45010346
   0.25000000  0.25000000  0.45010346
   0.00010618  0.25004573  0.55032345
   0.25046908  0.50001879  0.55048532
   0.00000000  0.49999999  0.64948496
   0.24986588  0.24986417  0.64956199
   0.50000000  0.75000000  0.35031038
   0.75000000  0.00000000  0.35031038
   0.50000000  0.00000000  0.45010346
   0.75000000  0.75000000  0.45010346
   0.49998121  0.74953143  0.55048548
   0.74995435  0.99989382  0.55032323
   0.49999999  0.00000000  0.64948400
   0.75013411  0.75013582  0.64956197
   0.50000000  0.25000000  0.35031038
   0.75000000  0.50000000  0.35031038
   0.50000000  0.50000000  0.45010346
   0.75000000  0.25000000  0.45010346
   0.50001878  0.25046857  0.55048546
   0.74953091  0.49998121  0.55048534
   0.49999999  0.49999999  0.65164423
   0.75043710  0.24956119  0.64926180
   0.00000000  0.75000000  0.45010346
   0.25000000  0.00000000  0.45010346
   0.00000000  0.00000000  0.35031038
   0.25000000  0.75000000  0.35031038
   0.99990913  0.75021577  0.65141035
   0.24978346  0.00009087  0.65141008
   1.00000000  1.00000000  0.55006166
   0.24990762  0.75009147  0.55008159
   0.00000000  0.25000000  0.45010346
   0.25000000  0.50000000  0.45010346
   0.00000000  0.50000000  0.35031038
   0.25000000  0.25000000  0.35031038
   0.00009087  0.24978423  0.65141034
   0.24908644  0.50031290  0.65132159
   0.00000000  0.50000000  0.55007846
   0.25003292  0.25003383  0.55015986
   0.50000000  0.75000000  0.45010346
   0.75000000  0.00000000  0.45010346
   0.50000000  0.00000000  0.35031038
   0.75000000  0.75000000  0.35031038
   0.49968712  0.75091555  0.65131908
   0.75021654  0.99990914  0.65141009
   0.50000000  0.00000000  0.55007754
   0.74996708  0.74996618  0.55015986
   0.50000000  0.25000000  0.45010346
   0.75000000  0.50000000  0.45010346
   0.50000000  0.50000000  0.35031038
   0.75000000  0.25000000  0.35031038
   0.50031286  0.24908445  0.65131909
   0.75091356  0.49968708  0.65132157
   0.49999999  0.49999999  0.55047677
   0.75009238  0.24990852  0.55008159

 position of ions in cartesian coordinates  (Angst):
   4.27305721  4.27305715 16.39229932
   4.27305638  4.27305621 17.56960400
   0.00000000  6.40958522  7.50000000
   2.13652841  0.00000000  7.50000000
   0.00000000  0.00000000  9.63652841
   2.13652841  6.40958522  9.63652841
   8.54520620  6.40919445 11.78219691
   2.13691849  0.00090749 11.78219183
   0.00000002  0.00000003 13.90596583
   2.13279282  6.41333529 13.90042593
   0.00000000  2.13652841  7.50000000
   2.13652841  4.27305681  7.50000000
   0.00000000  4.27305681  9.63652841
   2.13652841  2.13652841  9.63652841
   0.00090747  2.13691918 11.78219675
   2.14053723  4.27321735 11.78566241
   0.00000002  4.27305674 13.90520357
   2.13538221  2.13536763 13.90685276
   4.27305681  6.40958522  7.50000000
   6.40958522  0.00000000  7.50000000
   4.27305681  0.00000000  9.63652841
   6.40958522  6.40958522  9.63652841
   4.27289620  6.40558079 11.78566574
   6.40919511  8.54520620 11.78219200
   4.27305675  0.00000002 13.90518299
   6.41073138  6.41074596 13.90685244
   4.27305681  2.13652841  7.50000000
   6.40958522  4.27305681  7.50000000
   4.27305681  4.27305681  9.63652841
   6.40958522  2.13652841  9.63652841
   4.27321730  2.14053283 11.78566531
   6.40557636  4.27289620 11.78566284
   4.27305672  4.27305672 13.95143274
   6.41332075  2.13277830 13.90042594
   0.00000000  6.40958522  9.63652841
   2.13652841  0.00000000  9.63652841
   0.00000000  0.00000000  7.50000000
   2.13652841  6.40958522  7.50000000
   8.54533708  6.41142924 13.94642533
   2.13467779  0.00077654 13.94641963
   8.54611361  8.54611360 11.77659201
   2.13573888  6.41036694 11.77701872
   0.00000000  2.13652841  9.63652841
   2.13652841  4.27305681  9.63652841
   0.00000000  4.27305681  7.50000000
   2.13652841  2.13652841  7.50000000
   0.00077660  2.13468439 13.94642520
   2.12872101  4.27573093 13.94452500
   0.00000003  4.27305681 11.77695168
   2.13680977  2.13681749 11.77869435
   4.27305681  6.40958522  9.63652841
   6.40958522  0.00000000  9.63652841
   4.27305681  0.00000000  7.50000000
   6.40958522  6.40958522  7.50000000
   4.27038291  6.41740958 13.94447128
   6.41143580  8.54533716 13.94641975
   4.27305682  0.00000002 11.77693195
   6.40930388  6.40929618 11.77869450
   4.27305681  2.13652841  9.63652841
   6.40958522  4.27305681  9.63652841
   4.27305681  4.27305681  7.50000000
   6.40958522  2.13652841  7.50000000
   4.27573057  2.12870405 13.94447158
   6.41739257  4.27038256 13.94452470
   4.27305675  4.27305674 11.78547925
   6.41037467  2.13574662 11.77701872



--------------------------------------------------------------------------------------------------------

--------------------------------------- Iteration      FINAL  ---------------------------------------


--------------------OUTCAR has been truncated-------------------------


--------------------OUTCAR has been truncated-------------------------


--------------------OUTCAR has been truncated-------------------------


--------------------OUTCAR has been truncated-------------------------


--------------------OUTCAR has been truncated-------------------------


--------------------OUTCAR has been truncated-------------------------


--------------------OUTCAR has been truncated-------------------------


--------------------OUTCAR has been truncated-------------------------


--------------------OUTCAR has been truncated-------------------------


--------------------OUTCAR has been truncated-------------------------


  FORCE on cell =-STRESS in cart. coord.  units (eV):
  Direction    XX          YY          ZZ          XY          YZ          ZX
  --------------------------------------------------------------------------------------
  Alpha Z   884.72509   884.72509   884.72509
  Ewald  152620.15741152620.15157************     0.24409    -0.00025    -0.00022
  Hartree163096.97816163096.91380************     6.10216    -0.00008    -0.00008
  E(xc)   -2501.88369 -2501.88493 -2500.76897     0.13918    -0.00000    -0.00000
  Local  ************************324803.39009   -17.53721     0.00027     0.00027
  n-local -2864.34202 -2864.30559 -2890.62562    -4.00913    -0.00001     0.00000
  augment  1059.52516  1059.51538  1049.52312     1.06361     0.00001     0.00000
  Kinetic  7516.30511  7516.17606  7527.36141    13.81613     0.00008     0.00004
  Fock        0.00000     0.00000     0.00000     0.00000     0.00000     0.00000
  -------------------------------------------------------------------------------------
  Total     -50.68500   -50.68779   -19.28603    -0.18119     0.00002     0.00001
  in kB     -51.93312   -51.93599   -19.76095    -0.18565     0.00002     0.00001
  external pressure =      -41.21 kB  Pullay stress =        0.00 kB


 VOLUME and BASIS-vectors are now :
 -----------------------------------------------------------------------------
  energy-cutoff  :      600.00
  volume of cell :     1563.67
      direct lattice vectors                 reciprocal lattice vectors
     8.546113626  0.000000000  0.000000000     0.117012252  0.000000000  0.000000000
     0.000000000  8.546113626  0.000000000     0.000000000  0.117012252  0.000000000
     0.000000000  0.000000000 21.409585219     0.000000000  0.000000000  0.046708051

  length of vectors
     8.546113626  8.546113626 21.409585219     0.117012252  0.117012252  0.046708051


 FORCES acting on ions:
    Electron-Ion                     Ewald-Force                    Non-Local-Force
 -----------------------------------------------------------------------------------------------
   -.176E-03 -.207E-03 -.103E+04   0.233E-03 0.261E-03 0.994E+03   -.529E-04 -.440E-04 0.412E+02
   0.167E-03 0.193E-03 -.145E+04   -.213E-03 -.241E-03 0.151E+04   0.466E-04 0.247E-04 -.596E+02
   0.549E-02 -.145E+00 0.202E+04   -.584E-02 0.145E+00 -.201E+04   0.258E-03 0.417E-03 -.674E+01
   0.146E+00 -.547E-02 0.202E+04   -.145E+00 0.583E-02 -.201E+04   -.397E-03 -.245E-03 -.674E+01
   0.105E-04 0.673E-05 0.697E+03   -.139E-04 -.122E-04 -.697E+03   0.366E-05 0.432E-05 0.431E+00
   0.609E+00 -.608E+00 0.698E+03   -.604E+00 0.603E+00 -.699E+03   -.382E-02 0.391E-02 0.447E+00
   0.167E+00 -.294E+01 -.617E+03   -.174E+00 0.292E+01 0.617E+03   0.803E-02 0.135E-01 -.250E+00
   0.294E+01 -.167E+00 -.617E+03   -.293E+01 0.174E+00 0.617E+03   -.130E-01 -.805E-02 -.249E+00
   0.176E-04 0.209E-04 -.195E+04   -.170E-04 -.155E-04 0.194E+04   0.348E-05 0.350E-05 0.593E+01
   0.205E+02 -.205E+02 -.192E+04   -.206E+02 0.206E+02 0.191E+04   0.918E-01 -.906E-01 0.599E+01
   -.547E-02 0.145E+00 0.202E+04   0.583E-02 -.145E+00 -.201E+04   -.253E-03 -.404E-03 -.674E+01
   0.175E+00 0.618E-02 0.202E+04   -.173E+00 -.622E-02 -.201E+04   -.166E-02 0.334E-04 -.674E+01
   0.253E-04 -.140E-04 0.698E+03   -.306E-04 0.135E-04 -.698E+03   -.105E-05 -.888E-05 0.422E+00
   0.614E+00 0.614E+00 0.698E+03   -.603E+00 -.602E+00 -.698E+03   -.763E-02 -.773E-02 0.469E+00
   -.167E+00 0.294E+01 -.617E+03   0.174E+00 -.292E+01 0.617E+03   -.804E-02 -.135E-01 -.250E+00
   0.547E+01 0.185E+00 -.609E+03   -.536E+01 -.193E+00 0.610E+03   -.115E+00 0.779E-02 -.334E+00
   0.145E-04 -.324E-04 -.193E+04   -.115E-04 0.278E-04 0.192E+04   0.696E-05 -.118E-04 0.594E+01
   0.203E+02 0.203E+02 -.192E+04   -.205E+02 -.205E+02 0.192E+04   0.131E+00 0.129E+00 0.598E+01
   -.618E-02 -.175E+00 0.202E+04   0.623E-02 0.172E+00 -.201E+04   -.555E-04 0.165E-02 -.674E+01
   -.146E+00 0.548E-02 0.202E+04   0.145E+00 -.584E-02 -.201E+04   0.436E-03 0.254E-03 -.674E+01
   -.617E-05 0.266E-04 0.698E+03   0.136E-04 -.289E-04 -.698E+03   -.150E-04 0.878E-05 0.422E+00
   -.614E+00 -.614E+00 0.698E+03   0.603E+00 0.602E+00 -.698E+03   0.764E-02 0.772E-02 0.469E+00
   -.185E+00 -.546E+01 -.609E+03   0.193E+00 0.535E+01 0.610E+03   -.780E-02 0.115E+00 -.334E+00
   -.294E+01 0.167E+00 -.617E+03   0.293E+01 -.174E+00 0.617E+03   0.131E-01 0.804E-02 -.249E+00
   -.154E-04 0.139E-04 -.193E+04   0.190E-04 -.555E-05 0.192E+04   -.311E-05 -.109E-04 0.594E+01
   -.203E+02 -.203E+02 -.192E+04   0.205E+02 0.205E+02 0.192E+04   -.131E+00 -.129E+00 0.598E+01
   0.617E-02 0.175E+00 0.202E+04   -.622E-02 -.172E+00 -.201E+04   0.360E-04 -.164E-02 -.674E+01
   -.175E+00 -.619E-02 0.202E+04   0.173E+00 0.623E-02 -.201E+04   0.164E-02 -.610E-04 -.674E+01
   -.208E-04 -.286E-04 0.699E+03   0.311E-04 0.309E-04 -.699E+03   -.432E-05 0.115E-05 0.517E+00
   -.609E+00 0.608E+00 0.698E+03   0.604E+00 -.603E+00 -.699E+03   0.381E-02 -.391E-02 0.447E+00
   0.185E+00 0.546E+01 -.609E+03   -.193E+00 -.535E+01 0.610E+03   0.780E-02 -.115E+00 -.334E+00
   -.547E+01 -.185E+00 -.609E+03   0.536E+01 0.193E+00 0.610E+03   0.115E+00 -.780E-02 -.334E+00
   -.896E-05 -.375E-04 -.184E+04   0.923E-05 0.232E-04 0.184E+04   0.111E-04 -.451E-06 0.511E+01
   -.205E+02 0.205E+02 -.192E+04   0.206E+02 -.206E+02 0.191E+04   -.918E-01 0.906E-01 0.599E+01
   0.291E-01 -.400E+00 0.523E+03   -.212E-01 0.396E+00 -.523E+03   -.106E-01 0.448E-02 -.733E-01
   0.401E+00 -.290E-01 0.523E+03   -.397E+00 0.212E-01 -.523E+03   -.438E-02 0.106E-01 -.731E-01
   0.295E-05 -.226E-05 0.152E+04   -.270E-05 -.256E-05 -.152E+04   -.330E-05 0.672E-06 0.363E+01
   0.120E+00 -.120E+00 0.152E+04   -.118E+00 0.118E+00 -.152E+04   -.210E-02 0.213E-02 0.362E+01
   0.189E+00 -.794E+01 -.147E+04   -.208E+00 0.789E+01 0.148E+04   0.199E-01 0.475E-01 -.495E+01
   0.794E+01 -.189E+00 -.147E+04   -.789E+01 0.208E+00 0.148E+04   -.462E-01 -.199E-01 -.495E+01
   0.499E-05 -.193E-05 -.460E+03   -.834E-05 -.218E-05 0.460E+03   0.830E-05 0.561E-05 0.255E+00
   0.305E+01 -.305E+01 -.454E+03   -.305E+01 0.305E+01 0.454E+03   -.267E-02 0.338E-02 0.359E+00
   -.290E-01 0.400E+00 0.523E+03   0.212E-01 -.396E+00 -.523E+03   0.106E-01 -.448E-02 -.733E-01
   0.616E+00 0.412E-01 0.523E+03   -.638E+00 -.407E-01 -.523E+03   0.290E-01 -.785E-03 -.104E+00
   -.170E-05 -.824E-05 0.152E+04   -.417E-05 0.258E-05 -.152E+04   0.446E-05 0.870E-06 0.362E+01
   0.119E+00 0.119E+00 0.152E+04   -.118E+00 -.118E+00 -.152E+04   -.177E-02 -.179E-02 0.362E+01
   -.189E+00 0.794E+01 -.147E+04   0.208E+00 -.789E+01 0.148E+04   -.199E-01 -.475E-01 -.495E+01
   0.280E+02 0.243E+00 -.144E+04   -.278E+02 -.263E+00 0.144E+04   -.201E+00 0.211E-01 -.493E+01
   0.252E-04 -.709E-05 -.456E+03   -.199E-04 0.106E-04 0.455E+03   -.500E-07 -.434E-05 0.284E+00
   0.303E+01 0.303E+01 -.455E+03   -.301E+01 -.301E+01 0.455E+03   -.130E-01 -.137E-01 0.281E+00
   -.413E-01 -.615E+00 0.523E+03   0.407E-01 0.637E+00 -.523E+03   0.790E-03 -.289E-01 -.104E+00
   -.401E+00 0.290E-01 0.523E+03   0.397E+00 -.212E-01 -.523E+03   0.437E-02 -.106E-01 -.732E-01
   -.486E-05 -.142E-05 0.152E+04   0.270E-05 -.403E-05 -.152E+04   0.135E-04 0.589E-05 0.362E+01
   -.119E+00 -.119E+00 0.152E+04   0.118E+00 0.118E+00 -.152E+04   0.176E-02 0.178E-02 0.362E+01
   -.243E+00 -.280E+02 -.144E+04   0.263E+00 0.277E+02 0.144E+04   -.211E-01 0.202E+00 -.493E+01
   -.794E+01 0.189E+00 -.147E+04   0.789E+01 -.208E+00 0.148E+04   0.462E-01 0.199E-01 -.495E+01
   0.205E-07 0.443E-05 -.456E+03   0.562E-05 -.132E-04 0.455E+03   -.444E-06 0.706E-05 0.285E+00
   -.303E+01 -.303E+01 -.455E+03   0.301E+01 0.301E+01 0.455E+03   0.130E-01 0.138E-01 0.281E+00
   0.412E-01 0.615E+00 0.523E+03   -.407E-01 -.637E+00 -.523E+03   -.788E-03 0.289E-01 -.104E+00
   -.616E+00 -.413E-01 0.523E+03   0.638E+00 0.407E-01 -.523E+03   -.290E-01 0.796E-03 -.104E+00
   0.229E-05 -.585E-05 0.152E+04   0.419E-05 0.406E-05 -.152E+04   -.220E-05 -.545E-05 0.362E+01
   -.120E+00 0.120E+00 0.152E+04   0.118E+00 -.118E+00 -.152E+04   0.211E-02 -.214E-02 0.362E+01
   0.243E+00 0.280E+02 -.144E+04   -.263E+00 -.277E+02 0.144E+04   0.211E-01 -.202E+00 -.493E+01
   -.280E+02 -.243E+00 -.144E+04   0.278E+02 0.263E+00 0.144E+04   0.201E+00 -.211E-01 -.493E+01
   -.239E-04 -.190E-04 -.453E+03   0.203E-04 0.250E-04 0.454E+03   0.420E-06 -.626E-05 -.235E+00
   -.305E+01 0.305E+01 -.454E+03   0.305E+01 -.305E+01 0.454E+03   0.267E-02 -.337E-02 0.359E+00
 -----------------------------------------------------------------------------------------------
   0.204E-04 -.368E-04 0.335E+02   0.120E-12 0.586E-13 -.335E-11   0.688E-05 -.427E-04 -.336E+02


 POSITION                                       TOTAL-FORCE (eV/Angst)
 -----------------------------------------------------------------------------------
      4.27306      4.27306     16.39230         0.000003      0.000012      0.511734
      4.27306      4.27306     17.56960         0.000000     -0.000022     -0.637340
      0.00000      6.40959      7.50000        -0.000097     -0.000180      0.478614
      2.13653      0.00000      7.50000         0.000172      0.000114      0.478552
      0.00000      0.00000      9.63653        -0.000000     -0.000000      0.019600
      2.13653      6.40959      9.63653         0.001441     -0.001464      0.022051
      8.54521      6.40919     11.78220         0.000684     -0.002657     -0.001793
      2.13692      0.00091     11.78219         0.002489     -0.000694     -0.001852
      0.00000      0.00000     13.90597         0.000004      0.000010     -0.159074
      2.13279      6.41334     13.90043         0.001057     -0.001551     -0.153258
      0.00000      2.13653      7.50000         0.000107      0.000198      0.478600
      2.13653      4.27306      7.50000         0.000479     -0.000008      0.479364
      0.00000      4.27306      9.63653        -0.000007     -0.000008      0.029608
      2.13653      2.13653      9.63653         0.003701      0.003714      0.021679
      0.00091      2.13692     11.78220        -0.000691      0.002660     -0.001781
      2.14054      4.27322     11.78566        -0.001848      0.000367     -0.005580
      0.00000      4.27306     13.90520         0.000009     -0.000015     -0.160559
      2.13538      2.13537     13.90685         0.001057      0.001572     -0.154500
      4.27306      6.40959      7.50000        -0.000013     -0.000522      0.479385
      6.40959      0.00000      7.50000        -0.000141     -0.000099      0.478711
      4.27306      0.00000      9.63653        -0.000008      0.000008      0.029476
      6.40959      6.40959      9.63653        -0.003682     -0.003718      0.021675
      4.27290      6.40558     11.78567        -0.000376      0.001649     -0.006010
      6.40920      8.54521     11.78219        -0.002488      0.000695     -0.001869
      4.27306      0.00000     13.90518         0.000000     -0.000001     -0.160591
      6.41073      6.41075     13.90685        -0.001079     -0.001556     -0.154501
      4.27306      2.13653      7.50000        -0.000010      0.000538      0.479356
      6.40959      4.27306      7.50000        -0.000511     -0.000024      0.479322
      4.27306      4.27306      9.63653         0.000006      0.000005      0.031307
      6.40959      2.13653      9.63653        -0.001454      0.001466      0.022055
      4.27322      2.14053     11.78567         0.000369     -0.001648     -0.005973
      6.40558      4.27290     11.78566         0.001853     -0.000375     -0.005571
      4.27306      4.27306     13.95143         0.000011     -0.000014     -0.102244
      6.41332      2.13278     13.90043        -0.001062      0.001565     -0.153232
      0.00000      6.40959      9.63653        -0.002788      0.001096      0.042142
      2.13653      0.00000      9.63653        -0.001070      0.002788      0.042173
      0.00000      0.00000      7.50000        -0.000003     -0.000003     -0.248222
      2.13653      6.40959      7.50000        -0.000583      0.000586     -0.248477
      8.54534      6.41143     13.94643         0.001232     -0.003769     -0.138661
      2.13468      0.00078     13.94642         0.004186     -0.001231     -0.138581
      8.54611      8.54611     11.77659         0.000005      0.000003      0.001793
      2.13574      6.41037     11.77702         0.001469     -0.001198      0.001213
      0.00000      2.13653      9.63653         0.002791     -0.001104      0.042133
      2.13653      4.27306      9.63653         0.006665     -0.000250      0.048757
      0.00000      4.27306      7.50000        -0.000002     -0.000004     -0.248498
      2.13653      2.13653      7.50000        -0.000474     -0.000477     -0.248558
      0.00078      2.13468     13.94643        -0.001233      0.003768     -0.138664
      2.12872      4.27573     13.94453         0.004736      0.001098     -0.125650
      0.00000      4.27306     11.77695         0.000005      0.000000      0.002662
      2.13681      2.13682     11.77869         0.001184      0.000914      0.000517
      4.27306      6.40959      9.63653         0.000257     -0.006625      0.048812
      6.40959      0.00000      9.63653         0.001071     -0.002790      0.042160
      4.27306      0.00000      7.50000         0.000011      0.000002     -0.248483
      6.40959      6.40959      7.50000         0.000472      0.000464     -0.248555
      4.27038      6.41741     13.94447        -0.001089     -0.004806     -0.124593
      6.41144      8.54534     13.94642        -0.004192      0.001227     -0.138590
      4.27306      0.00000     11.77693         0.000005     -0.000001      0.003073
      6.40930      6.40930     11.77869        -0.001178     -0.000908      0.000517
      4.27306      2.13653      9.63653        -0.000252      0.006625      0.048810
      6.40959      4.27306      9.63653        -0.006660      0.000257      0.048759
      4.27306      4.27306      7.50000         0.000004     -0.000006     -0.249298
      6.40959      2.13653      7.50000         0.000583     -0.000596     -0.248472
      4.27573      2.12870     13.94447         0.001086      0.004810     -0.124592
      6.41739      4.27038     13.94452        -0.004739     -0.001092     -0.125656
      4.27306      4.27306     11.78548        -0.000004      0.000001     -0.006553
      6.41037      2.13575     11.77702        -0.001469      0.001201      0.001219
 -----------------------------------------------------------------------------------
    total drift:                                0.000027     -0.000080     -0.043586


--------------------------------------------------------------------------------------------------------



  FREE ENERGIE OF THE ION-ELECTRON SYSTEM (eV)
  ---------------------------------------------------
  free  energy   TOTEN  =      -273.52381509 eV

  energy  without entropy=     -273.52348074  energy(sigma->0) =     -273.52364792



--------------------------------------------------------------------------------------------------------


    POTLOK:  cpu time      2.6449: real time      2.6454


--------------------------------------------------------------------------------------------------------


     LOOP+:  cpu time    388.4328: real time    388.7225
    4ORBIT:  cpu time      0.0000: real time      0.0000

 total amount of memory used by VASP MPI-rank0    79854. kBytes
=======================================================================

   base      :      30000. kBytes
   nonl-proj :      17930. kBytes
   fftplans  :       4926. kBytes
   grid      :      13952. kBytes
   one-center:        146. kBytes
   wavefun   :      12900. kBytes

  
  
 General timing and accounting informations for this job:
 ========================================================
  
                  Total CPU time used (sec):      423.999
                            User time (sec):      422.379
                          System time (sec):        1.620
                         Elapsed time (sec):      434.243
  
                   Maximum memory used (kb):      296996.
                   Average memory used (kb):          N/A
  
                          Minor page faults:       131432
                          Major page faults:            0
                 Voluntary context switches:        13156
