 vasp.6.4.2 20Jul23 (build Feb 22 2024 13:53:45) complex                         
 executed on              LinuxNV date 2024.08.30  04:02:10
 running    4 mpi-ranks, with    1 threads/rank, on    1 nodes
 distrk:  each k-point on    4 cores,    1 groups
 distr:  one band on NCORE=   1 cores,    4 groups
 OpenACC runtime initialized ...    4 GPUs detected


--------------------------------------------------------------------------------------------------------


 INCAR:
   SYSTEM = Oxide-Surface
   ISMEAR = 0
   SIGMA = 0.05
   EDIFF = 1E-5
   ALGO = Normal
   IBRION = -1
   NSW = 0
   ISYM = 0
   DIPOL = 0.5 0.5 0.5
   IDIPOL = 3
   LDIPOL = .TRUE.
   ISTART = 0
   LHFCALC = .FALSE.
   GGA = PE
   IVDW = 21
   VDW_SR = 0.96
   HFRCUT = -1
   ENCUT = 1000
   PREC = Normal
   PRECFOCK = Normal
   LASPH = .TRUE.
   LREAL = Auto
   ISPIN = 1
   NELM = 200
   NELMIN = 8
   NCORE = 1
   KPAR = 1
   LWAVE = .FALSE.
   LCHARG = .FALSE.

 POTCAR:    PAW_PBE C_h 06Feb2004                 
 POTCAR:    PAW_PBE O_h 06Feb2004                 
 POTCAR:    PAW_PBE Ti_sv 26Sep2005               
 POTCAR:    PAW_PBE O_h 06Feb2004                 
 POTCAR:    PAW_PBE C_h 06Feb2004                 
   SHA256 =  1e4d9ea6ed5f132c831b2a321be9195311c7bc5a92c5663cac630aa85140ff5b C_h/POTCAR            
   COPYR  = (c) Copyright 06Feb2004 Georg Kresse                                                    
   COPYR  = This file is part of the software VASP. Any use, copying, and all other rights are regul
   COPYR  = If you do not have a valid VASP license, you may not use, copy or distribute this file. 
   VRHFIN =C: s2p2                                                                                  
   LEXCH  = PE                                                                                      
   EATOM  =   147.1560 eV,   10.8157 Ry                                                             
                                                                                                    
   TITEL  = PAW_PBE C_h 06Feb2004                                                                   
   LULTRA =        F    use ultrasoft PP ?                                                          
   IUNSCR =        1    unscreen: 0-lin 1-nonlin 2-no                                               
   RPACOR =    0.800    partial core radius                                                         
   POMASS =   12.011; ZVAL   =    4.000    mass and valenz                                          
   RCORE  =    1.100    outmost cutoff radius                                                       
   RWIGS  =    1.630; RWIGS  =    0.863    wigner-seitz radius (au A)                               
   ENMAX  =  700.000; ENMIN  =  500.000 eV                                                          
   ICORE  =        2    local potential                                                             
   LCOR   =        T    correct aug charges                                                         
   LPAW   =        T    paw PP                                                                      
   EAUG   =  946.768                                                                                
   DEXC   =    0.000                                                                                
   RMAX   =    1.128    core radius for proj-oper                                                   
   RAUG   =    1.300    factor for augmentation sphere                                              
   RDEP   =    1.162    radius for radial grids                                                     
   RDEPT  =    1.088    core radius for aug-charge                                                  
                                                                                                    
   Atomic configuration                                                                             
    4 entries                                                                                       
     n  l   j            E        occ.                                                              
     1  0  0.50      -273.3789   2.0000                                                             
     2  0  0.50       -13.7508   2.0000                                                             
     2  1  0.50        -5.2854   2.0000                                                             
     3  2  1.50        -5.4423   0.0000                                                             
   Description                                                                                      
     l       E           TYP  RCUT    TYP  RCUT                                                     
     0    -13.7508458     23  1.100                                                                 
     0     -8.2022199     23  1.100                                                                 
     1     -5.2854383     23  1.100                                                                 
     1      1.1560700     23  1.100                                                                 
     2     -5.4423304      7  1.100                                                                 
  local pseudopotential read in
  partial core-charges read in
  partial kinetic energy density read in
  atomic valenz-charges read in
  non local Contribution for L=            0  read in
    real space projection operators read in
  non local Contribution for L=            0  read in
    real space projection operators read in
  non local Contribution for L=            1  read in
    real space projection operators read in
  non local Contribution for L=            1  read in
    real space projection operators read in
    PAW grid and wavefunctions read in
 
   number of l-projection  operators is LMAX  =            4
   number of lm-projection operators is LMMAX =            8
 
 POTCAR:    PAW_PBE O_h 06Feb2004                 
   SHA256 =  7d3976308dcfb86c51a8aa000428ccf502aeca0a26316d98530ed0719b164db2 O_h/POTCAR            
   COPYR  = (c) Copyright 06Feb2004 Georg Kresse                                                    
   COPYR  = This file is part of the software VASP. Any use, copying, and all other rights are regul
   COPYR  = If you do not have a valid VASP license, you may not use, copy or distribute this file. 
   VRHFIN =O: s2p4                                                                                  
   LEXCH  = PE                                                                                      
   EATOM  =   432.3788 eV,   31.7789 Ry                                                             
                                                                                                    
   TITEL  = PAW_PBE O_h 06Feb2004                                                                   
   LULTRA =        F    use ultrasoft PP ?                                                          
   IUNSCR =        1    unscreen: 0-lin 1-nonlin 2-no                                               
   RPACOR =    0.800    partial core radius                                                         
   POMASS =   16.000; ZVAL   =    6.000    mass and valenz                                          
   RCORE  =    1.100    outmost cutoff radius                                                       
   RWIGS  =    1.400; RWIGS  =    0.741    wigner-seitz radius (au A)                               
   ENMAX  =  700.000; ENMIN  =  500.000 eV                                                          
   ICORE  =        2    local potential                                                             
   LCOR   =        T    correct aug charges                                                         
   LPAW   =        T    paw PP                                                                      
   EAUG   =  888.804                                                                                
   DEXC   =    0.000                                                                                
   RMAX   =    1.128    core radius for proj-oper                                                   
   RAUG   =    1.300    factor for augmentation sphere                                              
   RDEP   =    1.125    radius for radial grids                                                     
   RDEPT  =    1.088    core radius for aug-charge                                                  
                                                                                                    
   Atomic configuration                                                                             
    4 entries                                                                                       
     n  l   j            E        occ.                                                              
     1  0  0.50      -514.6923   2.0000                                                             
     2  0  0.50       -23.9615   2.0000                                                             
     2  1  0.50        -9.0305   4.0000                                                             
     3  2  1.50        -9.5241   0.0000                                                             
   Description                                                                                      
     l       E           TYP  RCUT    TYP  RCUT                                                     
     0    -23.9615319     23  1.100                                                                 
     0    -25.3221145     23  1.100                                                                 
     1     -9.0304911     23  1.100                                                                 
     1     -5.4802209     23  1.100                                                                 
     2     -9.5240782      7  1.100                                                                 
  local pseudopotential read in
  partial core-charges read in
  partial kinetic energy density read in
  atomic valenz-charges read in
  non local Contribution for L=            0  read in
    real space projection operators read in
  non local Contribution for L=            0  read in
    real space projection operators read in
  non local Contribution for L=            1  read in
    real space projection operators read in
  non local Contribution for L=            1  read in
    real space projection operators read in
    PAW grid and wavefunctions read in
 
   number of l-projection  operators is LMAX  =            4
   number of lm-projection operators is LMMAX =            8
 
 POTCAR:    PAW_PBE Ti_sv 26Sep2005               
   SHA256 =  4d747badb5a5ea28d858fbac70885b3f8929d6fd9e5b0dbe1ecb9878dc164da1 Ti_sv/POTCAR          
   COPYR  = (c) Copyright 26Sep2005 Georg Kresse                                                    
   COPYR  = This file is part of the software VASP. Any use, copying, and all other rights are regul
   COPYR  = If you do not have a valid VASP license, you may not use, copy or distribute this file. 
   VRHFIN =Ti: 3p4s3d                                                                               
   LEXCH  = PE                                                                                      
   EATOM  =  1588.0892 eV,  116.7213 Ry                                                             
                                                                                                    
   TITEL  = PAW_PBE Ti_sv 26Sep2005                                                                 
   LULTRA =        F    use ultrasoft PP ?                                                          
   IUNSCR =        1    unscreen: 0-lin 1-nonlin 2-no                                               
   RPACOR =    2.000    partial core radius                                                         
   POMASS =   47.880; ZVAL   =   12.000    mass and valenz                                          
   RCORE  =    2.300    outmost cutoff radius                                                       
   RWIGS  =    2.300; RWIGS  =    1.217    wigner-seitz radius (au A)                               
   ENMAX  =  274.610; ENMIN  =  205.957 eV                                                          
   ICORE  =        3    local potential                                                             
   LCOR   =        T    correct aug charges                                                         
   LPAW   =        T    paw PP                                                                      
   EAUG   =  482.848                                                                                
   RMAX   =    2.348    core radius for proj-oper                                                   
   RAUG   =    1.300    factor for augmentation sphere                                              
   RDEP   =    2.381    radius for radial grids                                                     
   RDEPT  =    1.930    core radius for aug-charge                                                  
                                                                                                    
   Atomic configuration                                                                             
    8 entries                                                                                       
     n  l   j            E        occ.                                                              
     1  0  0.50     -4865.3608   2.0000                                                             
     2  0  0.50      -533.1368   2.0000                                                             
     2  1  1.50      -440.5031   6.0000                                                             
     3  0  0.50       -59.3186   2.0000                                                             
     4  0  0.50        -3.7291   1.0000                                                             
     3  1  1.50       -35.7012   6.0000                                                             
     3  2  2.50        -1.9157   3.0000                                                             
     4  3  2.50        -1.3606   0.0000                                                             
   Description                                                                                      
     l       E           TYP  RCUT    TYP  RCUT                                                     
     0    -59.3185931     23  1.800                                                                 
     0     -3.7290822     23  2.300                                                                 
     1    -35.7012045     23  2.300                                                                 
     1     -1.3605826     23  2.300                                                                 
     2     -1.9156920     23  2.300                                                                 
     2     -0.0236318     23  2.300                                                                 
     3     -1.3605826     23  2.300                                                                 
  local pseudopotential read in
  partial core-charges read in
  partial kinetic energy density read in
  atomic valenz-charges read in
  non local Contribution for L=            0  read in
    real space projection operators read in
  non local Contribution for L=            0  read in
    real space projection operators read in
  non local Contribution for L=            1  read in
    real space projection operators read in
  non local Contribution for L=            1  read in
    real space projection operators read in
  non local Contribution for L=            2  read in
    real space projection operators read in
  non local Contribution for L=            2  read in
    real space projection operators read in
    PAW grid and wavefunctions read in
 
   number of l-projection  operators is LMAX  =            6
   number of lm-projection operators is LMMAX =           18
 
 POTCAR:    PAW_PBE O_h 06Feb2004                 
   SHA256 =  7d3976308dcfb86c51a8aa000428ccf502aeca0a26316d98530ed0719b164db2 O_h/POTCAR            
   COPYR  = (c) Copyright 06Feb2004 Georg Kresse                                                    
   COPYR  = This file is part of the software VASP. Any use, copying, and all other rights are regul
   COPYR  = If you do not have a valid VASP license, you may not use, copy or distribute this file. 
   VRHFIN =O: s2p4                                                                                  
   LEXCH  = PE                                                                                      
   EATOM  =   432.3788 eV,   31.7789 Ry                                                             
                                                                                                    
   TITEL  = PAW_PBE O_h 06Feb2004                                                                   
   LULTRA =        F    use ultrasoft PP ?                                                          
   IUNSCR =        1    unscreen: 0-lin 1-nonlin 2-no                                               
   RPACOR =    0.800    partial core radius                                                         
   POMASS =   16.000; ZVAL   =    6.000    mass and valenz                                          
   RCORE  =    1.100    outmost cutoff radius                                                       
   RWIGS  =    1.400; RWIGS  =    0.741    wigner-seitz radius (au A)                               
   ENMAX  =  700.000; ENMIN  =  500.000 eV                                                          
   ICORE  =        2    local potential                                                             
   LCOR   =        T    correct aug charges                                                         
   LPAW   =        T    paw PP                                                                      
   EAUG   =  888.804                                                                                
   DEXC   =    0.000                                                                                
   RMAX   =    1.128    core radius for proj-oper                                                   
   RAUG   =    1.300    factor for augmentation sphere                                              
   RDEP   =    1.125    radius for radial grids                                                     
   RDEPT  =    1.088    core radius for aug-charge                                                  
                                                                                                    
   Atomic configuration                                                                             
    4 entries                                                                                       
     n  l   j            E        occ.                                                              
     1  0  0.50      -514.6923   2.0000                                                             
     2  0  0.50       -23.9615   2.0000                                                             
     2  1  0.50        -9.0305   4.0000                                                             
     3  2  1.50        -9.5241   0.0000                                                             
   Description                                                                                      
     l       E           TYP  RCUT    TYP  RCUT                                                     
     0    -23.9615319     23  1.100                                                                 
     0    -25.3221145     23  1.100                                                                 
     1     -9.0304911     23  1.100                                                                 
     1     -5.4802209     23  1.100                                                                 
     2     -9.5240782      7  1.100                                                                 
  local pseudopotential read in
  partial core-charges read in
  partial kinetic energy density read in
  atomic valenz-charges read in
  non local Contribution for L=            0  read in
    real space projection operators read in
  non local Contribution for L=            0  read in
    real space projection operators read in
  non local Contribution for L=            1  read in
    real space projection operators read in
  non local Contribution for L=            1  read in
    real space projection operators read in
    PAW grid and wavefunctions read in
 
   number of l-projection  operators is LMAX  =            4
   number of lm-projection operators is LMMAX =            8
 
 Optimization of the real space projectors (new method)

 maximal supplied QI-value         = 34.20
 optimisation between [QCUT,QGAM] = [ 16.08, 32.15] = [ 72.37,289.48] Ry 
 Optimized for a Real-space Cutoff    0.71 Angstroem

   l    n(q)    QCUT    max X(q) W(low)/X(q) W(high)/X(q)  e(spline) 
   0      7    16.076   134.812    0.49E-03    0.92E-03    0.59E-07
   0      7    16.076    80.524    0.48E-03    0.91E-03    0.58E-07
   1      6    16.076    79.026    0.37E-03    0.58E-03    0.12E-06
   1      6    16.076    45.188    0.36E-03    0.56E-03    0.12E-06
 Optimization of the real space projectors (new method)

 maximal supplied QI-value         = 34.20
 optimisation between [QCUT,QGAM] = [ 16.08, 32.15] = [ 72.37,289.48] Ry 
 Optimized for a Real-space Cutoff    0.71 Angstroem

   l    n(q)    QCUT    max X(q) W(low)/X(q) W(high)/X(q)  e(spline) 
   0      7    16.076   280.207    0.42E-03    0.69E-03    0.60E-07
   0      7    16.076   228.978    0.42E-03    0.69E-03    0.61E-07
   1      6    16.076    86.127    0.11E-03    0.66E-03    0.10E-06
   1      6    16.076    65.368    0.11E-03    0.65E-03    0.10E-06
 Optimization of the real space projectors (new method)

 maximal supplied QI-value         = 16.25
 optimisation between [QCUT,QGAM] = [ 16.09, 32.34] = [ 72.49,292.89] Ry 
 Optimized for a Real-space Cutoff    1.24 Angstroem

   l    n(q)    QCUT    max X(q) W(low)/X(q) W(high)/X(q)  e(spline) 
   0     12    16.089    12.277    0.23E-04    0.54E-05    0.15E-06
   0     12    16.089    11.419    0.26E-04    0.82E-06    0.19E-06
   1     12    16.089     4.010    0.40E-04    0.12E-04    0.58E-06
   1     12    16.089     6.182    0.55E-05    0.28E-04    0.27E-06
   2     11    16.089    47.177    0.17E-03    0.26E-03    0.90E-06
   2     11    16.089    42.437    0.17E-03    0.25E-03    0.88E-06
 Optimization of the real space projectors (new method)

 maximal supplied QI-value         = 34.20
 optimisation between [QCUT,QGAM] = [ 16.08, 32.15] = [ 72.37,289.48] Ry 
 Optimized for a Real-space Cutoff    0.71 Angstroem

   l    n(q)    QCUT    max X(q) W(low)/X(q) W(high)/X(q)  e(spline) 
   0      7    16.076   280.207    0.42E-03    0.69E-03    0.60E-07
   0      7    16.076   228.978    0.42E-03    0.69E-03    0.61E-07
   1      6    16.076    86.127    0.11E-03    0.66E-03    0.10E-06
   1      6    16.076    65.368    0.11E-03    0.65E-03    0.10E-06
  PAW_PBE C_h 06Feb2004                 :
 energy of atom  1       EATOM= -147.1560
 kinetic energy error for atom=    0.0031 (will be added to EATOM!!)
  PAW_PBE O_h 06Feb2004                 :
 energy of atom  2       EATOM= -432.3788
 kinetic energy error for atom=    0.0171 (will be added to EATOM!!)
  PAW_PBE Ti_sv 26Sep2005               :
 energy of atom  3       EATOM=-1588.0892
 kinetic energy error for atom=    0.0004 (will be added to EATOM!!)
  PAW_PBE O_h 06Feb2004                 :
 energy of atom  4       EATOM= -432.3788
 kinetic energy error for atom=    0.0171 (will be added to EATOM!!)
 
 
 POSCAR:  C  O Ti  O
  positions in direct lattice
  No initial velocities read in
 exchange correlation table for  LEXCH =        8
   RHO(1)=    0.500       N(1)  =     2000
   RHO(2)=  100.500       N(2)  =     4000
 


--------------------------------------------------------------------------------------------------------


 ion  position               nearest neighbor table
   1  0.421  0.500  0.833-   2 1.17   3 1.19
   2  0.360  0.500  0.867-   1 1.17
   3  0.486  0.500  0.800-   1 1.19
   4  0.750  0.625  0.184-  85 1.95 145 1.95 144 1.95  84 1.95  87 1.98 166 1.98
   5  0.000  0.750  0.184-  86 1.95  87 1.95 106 1.95 107 1.95  88 1.98
   6  0.000  0.625  0.314-  88 1.95 148 1.95  89 1.95 149 1.95  90 1.98  91 1.98
   7  0.750  0.750  0.314-  90 1.95 110 1.95 171 1.95 191 1.95  92 1.98  85 1.98
   8  0.750  0.625  0.444-  92 1.95  93 1.95 152 1.95 153 1.95  95 1.98 174 1.98
   9  0.000  0.750  0.444-  94 1.95  95 1.95 114 1.95 115 1.95  89 1.98  96 2.00
  10  0.000  0.625  0.571- 156 1.90  96 1.90  99 1.95  98 1.95  97 2.02 157 2.02
  11  0.750  0.750  0.579- 100 1.86 179 1.97  98 1.97 199 1.97 118 1.98  93 2.11
  12  0.750  0.625  0.713- 161 1.83 101 1.83 182 2.02 103 2.03 160 2.10 100 2.10
  13  1.000  0.750  0.698-  97 1.81 123 1.94 122 1.95 103 1.95 102 1.95
  14  0.750  0.875  0.184-  85 1.95 105 1.95  84 1.95 104 1.95 107 1.98 186 1.98
  15  0.000  0.000  0.184- 126 1.95 127 1.95 106 1.95 107 1.95 108 1.98
  16  0.000  0.875  0.314-  88 1.95 108 1.95  89 1.95 109 1.95 110 1.98 111 1.98
  17  0.750  0.000  0.314- 130 1.95 211 1.95 191 1.95 110 1.95 112 1.98 105 1.98
  18  0.750  0.875  0.444-  92 1.95  93 1.95 112 1.95 113 1.95 115 1.98 194 1.98
  19  0.000  0.000  0.444- 134 1.95 135 1.95 114 1.95 115 1.95 109 1.98 116 2.00
  20  1.000  0.875  0.571-  96 1.89 116 1.90 118 1.95 119 1.95 117 2.02  97 2.02
  21  0.750  0.000  0.579- 120 1.86 199 1.97 219 1.97 138 1.97 118 1.97 113 2.11
  22  0.750  0.875  0.713- 121 1.83 101 1.83 202 2.02 123 2.03 100 2.10 120 2.10
  23  0.000  0.000  0.698- 117 1.81 122 1.95 142 1.95 123 1.95 143 1.95
  24  0.750  0.125  0.184- 105 1.95 125 1.95 124 1.95 104 1.95 127 1.98 206 1.98
  25  0.000  0.250  0.184- 126 1.95 127 1.95 146 1.95 147 1.95 128 1.98
  26  0.000  0.125  0.314- 108 1.95 128 1.95 109 1.95 129 1.95 130 1.98 131 1.98
  27  0.750  0.250  0.314- 130 1.95 150 1.95 211 1.95 231 1.95 132 1.98 125 1.98
  28  0.750  0.125  0.444- 112 1.95 113 1.95 132 1.95 133 1.95 135 1.98 214 1.98
  29  0.000  0.250  0.444- 134 1.95 135 1.95 154 1.95 155 1.95 129 1.98 136 2.00
  30  1.000  0.125  0.571- 136 1.89 116 1.90 138 1.95 139 1.95 117 2.02 137 2.02
  31  0.750  0.250  0.579- 140 1.86 239 1.97 158 1.97 219 1.97 138 1.98 133 2.11
  32  0.750  0.125  0.713- 121 1.83 141 1.83 222 2.02 143 2.03 140 2.10 120 2.10
  33  1.000  0.250  0.698- 137 1.81 143 1.94 142 1.95 163 1.95 162 1.95
  34  0.750  0.375  0.184- 145 1.95 125 1.95 144 1.95 124 1.95 147 1.98 226 1.98
  35  0.000  0.500  0.184- 146 1.95 147 1.95  86 1.95  87 1.95 148 1.98
  36  0.000  0.375  0.314- 148 1.95 128 1.95 149 1.95 129 1.95 150 1.98 151 1.98
  37  0.750  0.500  0.314- 150 1.95 231 1.95 171 1.95  90 1.95 145 1.98 152 1.98
  38  0.750  0.375  0.444- 152 1.95 153 1.95 132 1.95 133 1.95 155 1.98 234 1.98
  39  0.000  0.500  0.444- 154 1.95 155 1.95  94 1.95  95 1.95 149 1.98 156 2.00
  40  0.000  0.375  0.571- 156 1.90 136 1.90 159 1.95 158 1.95 137 2.02 157 2.02
  41  0.750  0.500  0.579- 160 1.86 179 1.97 239 1.97 158 1.97  98 1.97 153 2.11
  42  0.750  0.375  0.713- 161 1.83 141 1.83 242 2.02 163 2.03 160 2.10 140 2.10
  43  1.000  0.500  0.698- 157 1.81 103 1.94 163 1.94 102 1.95 162 1.95
  44  0.250  0.625  0.184- 165 1.95 225 1.95 224 1.95 164 1.95  86 1.98 167 1.98
  45  0.500  0.750  0.184- 166 1.95 167 1.95 186 1.95 187 1.95 168 1.98
  46  0.500  0.625  0.314- 168 1.95 228 1.95 169 1.95 229 1.95 170 1.98 171 1.98
  47  0.250  0.750  0.314-  91 1.95 111 1.95 170 1.95 190 1.95 172 1.98 165 1.98
  48  0.250  0.625  0.444- 172 1.95 173 1.95 232 1.95 233 1.95  94 1.98 175 1.98
  49  0.500  0.750  0.444- 174 1.95 175 1.95 194 1.95 195 1.95 169 1.98 176 2.00
  50  0.500  0.624  0.572- 236 1.90 176 1.91 179 1.95 178 1.95 177 2.01 237 2.01
  51  0.250  0.750  0.579- 180 1.86 198 1.97 119 1.97 178 1.97  99 1.97 173 2.10
  52  0.249  0.625  0.713- 181 1.83 241 1.84 102 2.02 183 2.03 180 2.09 240 2.10
  53  0.500  0.750  0.698- 177 1.80 183 1.93 182 1.94 203 1.95 202 1.95
  54  0.250  0.875  0.184- 165 1.95 185 1.95 164 1.95 184 1.95 106 1.98 187 1.98
  55  0.500  0.000  0.184- 206 1.95 207 1.95 186 1.95 187 1.95 188 1.98
  56  0.500  0.875  0.314- 168 1.95 188 1.95 169 1.95 189 1.95 190 1.98 191 1.98
  57  0.250  0.000  0.314- 131 1.95 210 1.95 190 1.95 111 1.95 192 1.98 185 1.98
  58  0.250  0.875  0.444- 172 1.95 173 1.95 192 1.95 193 1.95 114 1.98 195 1.98
  59  0.500  0.000  0.444- 214 1.95 215 1.95 194 1.95 195 1.95 189 1.98 196 1.99
  60  0.500  0.875  0.571- 176 1.89 196 1.89 199 1.95 198 1.95 177 2.01 197 2.02
  61  0.250  0.000  0.579- 200 1.86 218 1.97 198 1.97 139 1.97 119 1.97 193 2.11
  62  0.250  0.875  0.713- 201 1.83 181 1.84 203 2.02 122 2.03 200 2.10 180 2.10
  63  0.500  1.000  0.698- 197 1.80 202 1.94 222 1.94 203 1.95 223 1.95
  64  0.250  0.125  0.184- 185 1.95 205 1.95 204 1.95 184 1.95 126 1.98 207 1.98
  65  0.500  0.250  0.184- 206 1.95 207 1.95 226 1.95 227 1.95 208 1.98
  66  0.500  0.125  0.314- 188 1.95 208 1.95 189 1.95 209 1.95 210 1.98 211 1.98
  67  0.250  0.250  0.314- 131 1.95 151 1.95 210 1.95 230 1.95 212 1.98 205 1.98
  68  0.250  0.125  0.444- 192 1.95 193 1.95 212 1.95 213 1.95 134 1.98 215 1.98
  69  0.500  0.250  0.444- 214 1.95 215 1.95 234 1.95 235 1.95 209 1.98 216 2.00
  70  0.500  0.125  0.571- 216 1.89 196 1.89 219 1.95 218 1.95 217 2.01 197 2.02
  71  0.250  0.250  0.579- 220 1.86 218 1.97 139 1.97 238 1.97 159 1.97 213 2.10
  72  0.250  0.125  0.713- 201 1.83 221 1.84 223 2.02 142 2.03 200 2.10 220 2.10
  73  0.500  0.250  0.698- 217 1.80 243 1.93 242 1.94 223 1.95 222 1.95
  74  0.250  0.375  0.184- 225 1.95 205 1.95 224 1.95 204 1.95 146 1.98 227 1.98
  75  0.500  0.500  0.184- 226 1.95 227 1.95 166 1.95 167 1.95 228 1.98
  76  0.500  0.375  0.314- 228 1.95 208 1.95 229 1.95 209 1.95 230 1.98 231 1.98
  77  0.250  0.500  0.314- 151 1.95 230 1.95 170 1.95  91 1.95 225 1.98 232 1.98
  78  0.250  0.375  0.444- 232 1.95 233 1.95 212 1.95 213 1.95 154 1.98 235 1.98
  79  0.500  0.500  0.444- 234 1.95 235 1.95 174 1.95 175 1.95 229 1.98 236 2.00
  80  0.500  0.376  0.572- 236 1.90 216 1.91 239 1.95 238 1.95 217 2.01 237 2.01
  81  0.250  0.500  0.579- 240 1.86 178 1.97 238 1.97  99 1.97 159 1.97 233 2.10
  82  0.249  0.375  0.713- 221 1.83 241 1.84 162 2.02 243 2.03 220 2.09 240 2.10
  83  0.499  0.500  0.700- 237 1.83 242 1.95 182 1.95 243 1.95 183 1.95
  84  0.750  0.750  0.133-   4 1.95  14 1.95
  85  0.750  0.750  0.235-   4 1.95  14 1.95   7 1.98
  86  0.098  0.625  0.184-   5 1.95  35 1.95  44 1.98
  87  0.902  0.625  0.184-   5 1.95  35 1.95   4 1.98
  88  0.000  0.750  0.263-   6 1.95  16 1.95   5 1.98
  89  0.000  0.750  0.365-   6 1.95  16 1.95   9 1.98
  90  0.848  0.625  0.314-   7 1.95  37 1.95   6 1.98
  91  0.152  0.625  0.314-  47 1.95  77 1.95   6 1.98
  92  0.750  0.750  0.393-   8 1.95  18 1.95   7 1.98
  93  0.750  0.750  0.495-   8 1.95  18 1.95  11 2.11
  94  0.098  0.625  0.444-   9 1.95  39 1.95  48 1.98
  95  0.902  0.625  0.444-   9 1.95  39 1.95   8 1.98
  96  1.000  0.750  0.524-  20 1.89  10 1.90   9 2.00
  97  0.000  0.750  0.626-  13 1.81  10 2.02  20 2.02
  98  0.850  0.625  0.575-  10 1.95  11 1.97  41 1.97
  99  0.150  0.625  0.574-  10 1.95  51 1.97  81 1.97
 100  0.750  0.750  0.654-  11 1.86  22 2.10  12 2.10
 101  0.750  0.750  0.757-  12 1.83  22 1.83
 102  0.094  0.625  0.711-  43 1.95  13 1.95  52 2.02
 103  0.906  0.625  0.711-  43 1.94  13 1.95  12 2.03
 104  0.750  0.000  0.133-  24 1.95  14 1.95
 105  0.750  0.000  0.235-  24 1.95  14 1.95  17 1.98
 106  0.098  0.875  0.184-   5 1.95  15 1.95  54 1.98
 107  0.902  0.875  0.184-   5 1.95  15 1.95  14 1.98
 108  0.000  0.000  0.263-  26 1.95  16 1.95  15 1.98
 109  0.000  0.000  0.365-  26 1.95  16 1.95  19 1.98
 110  0.848  0.875  0.314-   7 1.95  17 1.95  16 1.98
 111  0.152  0.875  0.314-  47 1.95  57 1.95  16 1.98
 112  0.750  0.000  0.393-  28 1.95  18 1.95  17 1.98
 113  0.750  0.000  0.495-  28 1.95  18 1.95  21 2.11
 114  0.098  0.875  0.444-   9 1.95  19 1.95  58 1.98
 115  0.902  0.875  0.444-   9 1.95  19 1.95  18 1.98
 116  1.000  0.000  0.524-  30 1.90  20 1.90  19 2.00
 117  0.000  0.000  0.626-  23 1.81  30 2.02  20 2.02
 118  0.850  0.875  0.575-  20 1.95  21 1.97  11 1.98
 119  0.150  0.875  0.575-  20 1.95  61 1.97  51 1.97
 120  0.750  0.000  0.654-  21 1.86  32 2.10  22 2.10
 121  0.750  0.000  0.757-  32 1.83  22 1.83
 122  0.094  0.875  0.711-  13 1.95  23 1.95  62 2.03
 123  0.906  0.875  0.711-  13 1.94  23 1.95  22 2.03
 124  0.750  0.250  0.133-  24 1.95  34 1.95
 125  0.750  0.250  0.235-  24 1.95  34 1.95  27 1.98
 126  0.098  0.125  0.184-  15 1.95  25 1.95  64 1.98
 127  0.902  0.125  0.184-  15 1.95  25 1.95  24 1.98
 128  0.000  0.250  0.263-  26 1.95  36 1.95  25 1.98
 129  0.000  0.250  0.365-  26 1.95  36 1.95  29 1.98
 130  0.848  0.125  0.314-  17 1.95  27 1.95  26 1.98
 131  0.152  0.125  0.314-  57 1.95  67 1.95  26 1.98
 132  0.750  0.250  0.393-  28 1.95  38 1.95  27 1.98
 133  0.750  0.250  0.495-  28 1.95  38 1.95  31 2.11
 134  0.098  0.125  0.444-  19 1.95  29 1.95  68 1.98
 135  0.902  0.125  0.444-  19 1.95  29 1.95  28 1.98
 136  1.000  0.250  0.524-  30 1.89  40 1.90  29 2.00
 137  0.000  0.250  0.626-  33 1.81  40 2.02  30 2.02
 138  0.850  0.125  0.575-  30 1.95  21 1.97  31 1.98
 139  0.150  0.125  0.575-  30 1.95  61 1.97  71 1.97
 140  0.750  0.250  0.654-  31 1.86  32 2.10  42 2.10
 141  0.750  0.250  0.757-  42 1.83  32 1.83
 142  0.094  0.125  0.711-  33 1.95  23 1.95  72 2.03
 143  0.906  0.125  0.711-  33 1.94  23 1.95  32 2.03
 144  0.750  0.500  0.133-  34 1.95   4 1.95
 145  0.750  0.500  0.235-  34 1.95   4 1.95  37 1.98
 146  0.098  0.375  0.184-  35 1.95  25 1.95  74 1.98
 147  0.902  0.375  0.184-  35 1.95  25 1.95  34 1.98
 148  0.000  0.500  0.263-  36 1.95   6 1.95  35 1.98
 149  0.000  0.500  0.365-  36 1.95   6 1.95  39 1.98
 150  0.848  0.375  0.314-  37 1.95  27 1.95  36 1.98
 151  0.152  0.375  0.314-  77 1.95  67 1.95  36 1.98
 152  0.750  0.500  0.393-  38 1.95   8 1.95  37 1.98
 153  0.750  0.500  0.495-  38 1.95   8 1.95  41 2.11
 154  0.098  0.375  0.444-  39 1.95  29 1.95  78 1.98
 155  0.902  0.375  0.444-  39 1.95  29 1.95  38 1.98
 156  1.000  0.500  0.524-  40 1.90  10 1.90  39 2.00
 157  0.000  0.500  0.626-  43 1.81  10 2.02  40 2.02
 158  0.850  0.375  0.575-  40 1.95  31 1.97  41 1.97
 159  0.150  0.375  0.574-  40 1.95  71 1.97  81 1.97
 160  0.751  0.500  0.654-  41 1.86  12 2.10  42 2.10
 161  0.749  0.500  0.756-  12 1.83  42 1.83
 162  0.094  0.375  0.711-  43 1.95  33 1.95  82 2.02
 163  0.906  0.375  0.711-  43 1.94  33 1.95  42 2.03
 164  0.250  0.750  0.133-  44 1.95  54 1.95
 165  0.250  0.750  0.235-  44 1.95  54 1.95  47 1.98
 166  0.598  0.625  0.184-  45 1.95  75 1.95   4 1.98
 167  0.402  0.625  0.184-  45 1.95  75 1.95  44 1.98
 168  0.500  0.750  0.263-  46 1.95  56 1.95  45 1.98
 169  0.500  0.750  0.365-  46 1.95  56 1.95  49 1.98
 170  0.348  0.625  0.314-  47 1.95  77 1.95  46 1.98
 171  0.652  0.625  0.314-   7 1.95  37 1.95  46 1.98
 172  0.250  0.750  0.393-  48 1.95  58 1.95  47 1.98
 173  0.250  0.750  0.495-  48 1.95  58 1.95  51 2.10
 174  0.598  0.625  0.444-  49 1.95  79 1.95   8 1.98
 175  0.402  0.625  0.444-  49 1.95  79 1.95  48 1.98
 176  0.500  0.749  0.524-  60 1.89  50 1.91  49 2.00
 177  0.500  0.751  0.625-  53 1.80  60 2.01  50 2.01
 178  0.350  0.625  0.575-  50 1.95  81 1.97  51 1.97
 179  0.650  0.625  0.575-  50 1.95  11 1.97  41 1.97
 180  0.249  0.750  0.653-  51 1.86  52 2.09  62 2.10
 181  0.251  0.749  0.756-  52 1.83  62 1.84
 182  0.594  0.626  0.710-  53 1.94  83 1.95  12 2.02
 183  0.405  0.627  0.709-  53 1.93  83 1.95  52 2.03
 184  0.250  0.000  0.133-  64 1.95  54 1.95
 185  0.250  0.000  0.235-  64 1.95  54 1.95  57 1.98
 186  0.598  0.875  0.184-  45 1.95  55 1.95  14 1.98
 187  0.402  0.875  0.184-  45 1.95  55 1.95  54 1.98
 188  0.500  0.000  0.263-  66 1.95  56 1.95  55 1.98
 189  0.500  0.000  0.365-  66 1.95  56 1.95  59 1.98
 190  0.348  0.875  0.314-  47 1.95  57 1.95  56 1.98
 191  0.652  0.875  0.314-   7 1.95  17 1.95  56 1.98
 192  0.250  0.000  0.393-  68 1.95  58 1.95  57 1.98
 193  0.250  0.000  0.495-  68 1.95  58 1.95  61 2.11
 194  0.598  0.875  0.444-  49 1.95  59 1.95  18 1.98
 195  0.402  0.875  0.444-  49 1.95  59 1.95  58 1.98
 196  0.500  0.000  0.523-  70 1.89  60 1.89  59 1.99
 197  0.500  0.000  0.626-  63 1.80  70 2.02  60 2.02
 198  0.350  0.875  0.575-  60 1.95  51 1.97  61 1.97
 199  0.650  0.875  0.575-  60 1.95  21 1.97  11 1.97
 200  0.250  0.000  0.654-  61 1.86  72 2.10  62 2.10
 201  0.250  0.000  0.757-  72 1.83  62 1.83
 202  0.594  0.875  0.711-  63 1.94  53 1.95  22 2.02
 203  0.406  0.875  0.711-  63 1.95  53 1.95  62 2.02
 204  0.250  0.250  0.133-  64 1.95  74 1.95
 205  0.250  0.250  0.235-  64 1.95  74 1.95  67 1.98
 206  0.598  0.125  0.184-  55 1.95  65 1.95  24 1.98
 207  0.402  0.125  0.184-  55 1.95  65 1.95  64 1.98
 208  0.500  0.250  0.263-  66 1.95  76 1.95  65 1.98
 209  0.500  0.250  0.365-  66 1.95  76 1.95  69 1.98
 210  0.348  0.125  0.314-  57 1.95  67 1.95  66 1.98
 211  0.652  0.125  0.314-  17 1.95  27 1.95  66 1.98
 212  0.250  0.250  0.393-  68 1.95  78 1.95  67 1.98
 213  0.250  0.250  0.495-  68 1.95  78 1.95  71 2.10
 214  0.598  0.125  0.444-  59 1.95  69 1.95  28 1.98
 215  0.402  0.125  0.444-  59 1.95  69 1.95  68 1.98
 216  0.500  0.251  0.524-  70 1.89  80 1.91  69 2.00
 217  0.500  0.249  0.625-  73 1.80  70 2.01  80 2.01
 218  0.350  0.125  0.575-  70 1.95  71 1.97  61 1.97
 219  0.650  0.125  0.575-  70 1.95  21 1.97  31 1.97
 220  0.249  0.250  0.653-  71 1.86  82 2.09  72 2.10
 221  0.251  0.251  0.756-  82 1.83  72 1.84
 222  0.594  0.125  0.711-  63 1.94  73 1.95  32 2.02
 223  0.406  0.125  0.711-  63 1.95  73 1.95  72 2.02
 224  0.250  0.500  0.133-  74 1.95  44 1.95
 225  0.250  0.500  0.235-  74 1.95  44 1.95  77 1.98
 226  0.598  0.375  0.184-  75 1.95  65 1.95  34 1.98
 227  0.402  0.375  0.184-  75 1.95  65 1.95  74 1.98
 228  0.500  0.500  0.263-  76 1.95  46 1.95  75 1.98
 229  0.500  0.500  0.365-  76 1.95  46 1.95  79 1.98
 230  0.348  0.375  0.314-  77 1.95  67 1.95  76 1.98
 231  0.652  0.375  0.314-  37 1.95  27 1.95  76 1.98
 232  0.250  0.500  0.393-  78 1.95  48 1.95  77 1.98
 233  0.250  0.500  0.495-  78 1.95  48 1.95  81 2.10
 234  0.598  0.375  0.444-  79 1.95  69 1.95  38 1.98
 235  0.402  0.375  0.444-  79 1.95  69 1.95  78 1.98
 236  0.500  0.500  0.524-  50 1.90  80 1.90  79 2.00
 237  0.500  0.500  0.627-  83 1.83  80 2.01  50 2.01
 238  0.350  0.375  0.575-  80 1.95  81 1.97  71 1.97
 239  0.650  0.375  0.575-  80 1.95  31 1.97  41 1.97
 240  0.248  0.500  0.653-  81 1.86  82 2.10  52 2.10
 241  0.253  0.500  0.756-  52 1.84  82 1.84
 242  0.594  0.374  0.710-  73 1.94  83 1.95  42 2.02
 243  0.405  0.373  0.709-  73 1.93  83 1.95  82 2.03
 

IMPORTANT INFORMATION: All symmetrisations will be switched off!
NOSYMM: (Re-)initialisation of all symmetry stuff for point group C_1.


----------------------------------------------------------------------------------------

                                     Primitive cell                                     

  volume of cell :    3846.0501

  direct lattice vectors                    reciprocal lattice vectors
    13.003980404  0.000000000  0.000000000     0.076899531  0.000000000  0.000000000
     0.000000000 11.830378115  0.000000000     0.000000000  0.084528152  0.000000000
     0.000000000  0.000000000 25.000000000     0.000000000  0.000000000  0.040000000

  length of vectors
    13.003980404 11.830378115 25.000000000     0.076899531  0.084528152  0.040000000

  position of ions in fractional coordinates (direct lattice)
     0.421233206  0.499999967  0.832858386
     0.360274704  0.499999961  0.867301041
     0.486270676  0.499999964  0.799637586
     0.750009005  0.625000004  0.183674327
     0.000009005  0.750000004  0.183674327
     0.000009005  0.625000004  0.313714131
     0.750009005  0.750000004  0.313714131
     0.750009005  0.625000004  0.443753935
     0.000009005  0.750000004  0.443753935
     0.000039268  0.625021959  0.571008767
     0.750041367  0.749971392  0.579098488
     0.749740788  0.625029293  0.713111588
     0.999944200  0.750136611  0.698194134
     0.750009005  0.875000004  0.183674327
     0.000009005  0.000000004  0.183674327
     0.000009005  0.875000004  0.313714131
     0.750009005  0.000000004  0.313714131
     0.750009005  0.875000004  0.443753935
     0.000009005  0.000000004  0.443753935
     0.999929708  0.875024128  0.571049285
     0.749958663  0.000000007  0.579107830
     0.749825759  0.875046720  0.713182670
     0.000212581  0.000000005  0.698204043
     0.750009005  0.125000004  0.183674327
     0.000009005  0.250000004  0.183674327
     0.000009005  0.125000004  0.313714131
     0.750009005  0.250000004  0.313714131
     0.750009005  0.125000004  0.443753935
     0.000009005  0.250000004  0.443753935
     0.999929806  0.124975873  0.571049289
     0.750041514  0.250028642  0.579098486
     0.749825774  0.124953283  0.713182667
     0.999944204  0.249863411  0.698194132
     0.750009005  0.375000004  0.183674327
     0.000009005  0.500000004  0.183674327
     0.000009005  0.375000004  0.313714131
     0.750009005  0.500000004  0.313714131
     0.750009005  0.375000004  0.443753935
     0.000009005  0.500000004  0.443753935
     0.000039403  0.374978048  0.571008760
     0.750106312  0.500000004  0.579131674
     0.749740789  0.374970710  0.713111587
     0.999551305  0.500000007  0.698157090
     0.250009005  0.625000004  0.183674327
     0.500009005  0.750000004  0.183674327
     0.500009005  0.625000004  0.313714131
     0.250009005  0.750000004  0.313714131
     0.250009005  0.625000004  0.443753935
     0.500009005  0.750000004  0.443753935
     0.500040642  0.624340844  0.571661438
     0.249957923  0.750119640  0.578928957
     0.249460416  0.625320994  0.712524348
     0.500152263  0.750053206  0.697671829
     0.250009005  0.875000004  0.183674327
     0.500009005  0.000000004  0.183674327
     0.500009005  0.875000004  0.313714131
     0.250009005  0.000000004  0.313714131
     0.250009005  0.875000004  0.443753935
     0.500009005  0.000000004  0.443753935
     0.500114648  0.874698164  0.570607062
     0.250067388  0.000000017  0.579145980
     0.250326489  0.875043651  0.713238539
     0.500057072  0.999999996  0.697757384
     0.250009005  0.125000004  0.183674327
     0.500009005  0.250000004  0.183674327
     0.500009005  0.125000004  0.313714131
     0.250009005  0.250000004  0.313714131
     0.250009005  0.125000004  0.443753935
     0.500009005  0.250000004  0.443753935
     0.500114781  0.125301827  0.570607070
     0.249958078  0.249880375  0.578928949
     0.250326485  0.124956348  0.713238541
     0.500152286  0.249946775  0.697671838
     0.250009005  0.375000004  0.183674327
     0.500009005  0.500000004  0.183674327
     0.500009005  0.375000004  0.313714131
     0.250009005  0.500000004  0.313714131
     0.250009005  0.375000004  0.443753935
     0.500009005  0.500000004  0.443753935
     0.500040733  0.375659145  0.571661458
     0.249890442  0.500000021  0.578861447
     0.249460428  0.374679001  0.712524331
     0.499427355  0.499999993  0.699919265
     0.750009005  0.750000004  0.132698959
     0.750009005  0.750000004  0.234649695
     0.098008553  0.625000004  0.183674327
     0.902009456  0.625000004  0.183674327
     0.000009005  0.750000004  0.262738763
     0.000009005  0.750000004  0.364689499
     0.848008553  0.625000004  0.313714131
     0.152009456  0.625000004  0.313714131
     0.750009005  0.750000004  0.392778567
     0.750009005  0.750000004  0.494729303
     0.098008553  0.625000004  0.443753935
     0.902009456  0.625000004  0.443753935
     0.999983267  0.750070873  0.523628801
     0.000120917  0.749939208  0.625933809
     0.850255969  0.625071792  0.574623509
     0.149719120  0.625128830  0.574457783
     0.750320556  0.750218247  0.653510941
     0.749799633  0.749952391  0.756522817
     0.094056391  0.624743190  0.711428179
     0.905897405  0.625044954  0.711209305
     0.750009005  0.000000004  0.132698959
     0.750009005  0.000000004  0.234649695
     0.098008553  0.875000004  0.183674327
     0.902009456  0.875000004  0.183674327
     0.000009005  0.000000004  0.262738763
     0.000009005  0.000000004  0.364689499
     0.848008553  0.875000004  0.313714131
     0.152009456  0.875000004  0.313714131
     0.750009005  0.000000004  0.392778567
     0.750009005  0.000000004  0.494729303
     0.098008553  0.875000004  0.443753935
     0.902009456  0.875000004  0.443753935
     0.999990995  0.000000007  0.523634004
     0.000132593  0.000000008  0.625937227
     0.850292222  0.875044357  0.574678184
     0.149805253  0.875132830  0.574637229
     0.750089086  0.000000011  0.653537454
     0.750287776  0.000000007  0.756569020
     0.094162757  0.874904297  0.711263627
     0.906034633  0.874964254  0.711109742
     0.750009005  0.250000004  0.132698959
     0.750009005  0.250000004  0.234649695
     0.098008553  0.125000004  0.183674327
     0.902009456  0.125000004  0.183674327
     0.000009005  0.250000004  0.262738763
     0.000009005  0.250000004  0.364689499
     0.848008553  0.125000004  0.313714131
     0.152009456  0.125000004  0.313714131
     0.750009005  0.250000004  0.392778567
     0.750009005  0.250000004  0.494729303
     0.098008553  0.125000004  0.443753935
     0.902009456  0.125000004  0.443753935
     0.999983260  0.249929135  0.523628800
     0.000120914  0.250060807  0.625933808
     0.850292219  0.124955657  0.574678185
     0.149805250  0.124867187  0.574637227
     0.750320559  0.249781764  0.653510940
     0.749799628  0.250047618  0.756522816
     0.094162760  0.125095714  0.711263627
     0.906034634  0.125035761  0.711109745
     0.750009005  0.500000004  0.132698959
     0.750009005  0.500000004  0.234649695
     0.098008553  0.375000004  0.183674327
     0.902009456  0.375000004  0.183674327
     0.000009005  0.500000004  0.262738763
     0.000009005  0.500000004  0.364689499
     0.848008553  0.375000004  0.313714131
     0.152009456  0.375000004  0.313714131
     0.750009005  0.500000004  0.392778567
     0.750009005  0.500000004  0.494729303
     0.098008553  0.375000004  0.443753935
     0.902009456  0.375000004  0.443753935
     0.999957809  0.500000007  0.523620005
     0.000037781  0.500000003  0.625900365
     0.850255959  0.374928229  0.574623510
     0.149719112  0.374871177  0.574457775
     0.750679767  0.500000011  0.653538495
     0.749166542  0.500000002  0.756445037
     0.094056392  0.375256822  0.711428179
     0.905897404  0.374955055  0.711209303
     0.250009005  0.750000004  0.132698959
     0.250009005  0.750000004  0.234649695
     0.598008553  0.625000004  0.183674327
     0.402009456  0.625000004  0.183674327
     0.500009005  0.750000004  0.262738763
     0.500009005  0.750000004  0.364689499
     0.348008553  0.625000004  0.313714131
     0.652009456  0.625000004  0.313714131
     0.250009005  0.750000004  0.392778567
     0.250009005  0.750000004  0.494729303
     0.598008553  0.625000004  0.443753935
     0.402009456  0.625000004  0.443753935
     0.499971037  0.749365379  0.523612775
     0.500297602  0.750736323  0.625491526
     0.350042282  0.624996763  0.574912531
     0.649957096  0.624959039  0.574857426
     0.249147892  0.750315148  0.653468135
     0.250683045  0.749459477  0.756454292
     0.594158298  0.625830746  0.710290908
     0.405108606  0.626626002  0.709266675
     0.250009005  0.000000004  0.132698959
     0.250009005  0.000000004  0.234649695
     0.598008553  0.875000004  0.183674327
     0.402009456  0.875000004  0.183674327
     0.500009005  0.000000004  0.262738763
     0.500009005  0.000000004  0.364689499
     0.348008553  0.875000004  0.313714131
     0.652009456  0.875000004  0.313714131
     0.250009005  0.000000004  0.392778567
     0.250009005  0.000000004  0.494729303
     0.598008553  0.875000004  0.443753935
     0.402009456  0.875000004  0.443753935
     0.499982422  0.000000005  0.523394583
     0.499977163  0.000000007  0.625564548
     0.350076936  0.874972450  0.574587581
     0.649936991  0.875050121  0.574524727
     0.250060874  0.000000006  0.653663784
     0.249897425  0.000000010  0.756639786
     0.594196231  0.875363395  0.710963732
     0.405909827  0.875132004  0.711014265
     0.250009005  0.250000004  0.132698959
     0.250009005  0.250000004  0.234649695
     0.598008553  0.125000004  0.183674327
     0.402009456  0.125000004  0.183674327
     0.500009005  0.250000004  0.262738763
     0.500009005  0.250000004  0.364689499
     0.348008553  0.125000004  0.313714131
     0.652009456  0.125000004  0.313714131
     0.250009005  0.250000004  0.392778567
     0.250009005  0.250000004  0.494729303
     0.598008553  0.125000004  0.443753935
     0.402009456  0.125000004  0.443753935
     0.499971037  0.250634636  0.523612781
     0.500297606  0.249263675  0.625491531
     0.350076931  0.125027561  0.574587585
     0.649936984  0.124949900  0.574524725
     0.249147884  0.249684873  0.653468129
     0.250683053  0.250540544  0.756454289
     0.594196233  0.124636617  0.710963730
     0.405909831  0.124868007  0.711014265
     0.250009005  0.500000004  0.132698959
     0.250009005  0.500000004  0.234649695
     0.598008553  0.375000004  0.183674327
     0.402009456  0.375000004  0.183674327
     0.500009005  0.500000004  0.262738763
     0.500009005  0.500000004  0.364689499
     0.348008553  0.375000004  0.313714131
     0.652009456  0.375000004  0.313714131
     0.250009005  0.500000004  0.392778567
     0.250009005  0.500000004  0.494729303
     0.598008553  0.375000004  0.443753935
     0.402009456  0.375000004  0.443753935
     0.499969004  0.499999989  0.523861948
     0.500132821  0.500000013  0.626631412
     0.350042281  0.375003251  0.574912535
     0.649957090  0.375040974  0.574857430
     0.248446292  0.500000007  0.653288580
     0.253459535  0.499999997  0.756156971
     0.594158300  0.374169263  0.710290904
     0.405108610  0.373374005  0.709266657

  ion indices of the primitive-cell ions
   primitive index   ion index
                 1           1
                 2           2
                 3           3
                 4           4
                 5           5
                 6           6
                 7           7
                 8           8
                 9           9
                10          10
                11          11
                12          12
                13          13
                14          14
                15          15
                16          16
                17          17
                18          18
                19          19
                20          20
                21          21
                22          22
                23          23
                24          24
                25          25
                26          26
                27          27
                28          28
                29          29
                30          30
                31          31
                32          32
                33          33
                34          34
                35          35
                36          36
                37          37
                38          38
                39          39
                40          40
                41          41
                42          42
                43          43
                44          44
                45          45
                46          46
                47          47
                48          48
                49          49
                50          50
                51          51
                52          52
                53          53
                54          54
                55          55
                56          56
                57          57
                58          58
                59          59
                60          60
                61          61
                62          62
                63          63
                64          64
                65          65
                66          66
                67          67
                68          68
                69          69
                70          70
                71          71
                72          72
                73          73
                74          74
                75          75
                76          76
                77          77
                78          78
                79          79
                80          80
                81          81
                82          82
                83          83
                84          84
                85          85
                86          86
                87          87
                88          88
                89          89
                90          90
                91          91
                92          92
                93          93
                94          94
                95          95
                96          96
                97          97
                98          98
                99          99
               100         100
               101         101
               102         102
               103         103
               104         104
               105         105
               106         106
               107         107
               108         108
               109         109
               110         110
               111         111
               112         112
               113         113
               114         114
               115         115
               116         116
               117         117
               118         118
               119         119
               120         120
               121         121
               122         122
               123         123
               124         124
               125         125
               126         126
               127         127
               128         128
               129         129
               130         130
               131         131
               132         132
               133         133
               134         134
               135         135
               136         136
               137         137
               138         138
               139         139
               140         140
               141         141
               142         142
               143         143
               144         144
               145         145
               146         146
               147         147
               148         148
               149         149
               150         150
               151         151
               152         152
               153         153
               154         154
               155         155
               156         156
               157         157
               158         158
               159         159
               160         160
               161         161
               162         162
               163         163
               164         164
               165         165
               166         166
               167         167
               168         168
               169         169
               170         170
               171         171
               172         172
               173         173
               174         174
               175         175
               176         176
               177         177
               178         178
               179         179
               180         180
               181         181
               182         182
               183         183
               184         184
               185         185
               186         186
               187         187
               188         188
               189         189
               190         190
               191         191
               192         192
               193         193
               194         194
               195         195
               196         196
               197         197
               198         198
               199         199
               200         200
               201         201
               202         202
               203         203
               204         204
               205         205
               206         206
               207         207
               208         208
               209         209
               210         210
               211         211
               212         212
               213         213
               214         214
               215         215
               216         216
               217         217
               218         218
               219         219
               220         220
               221         221
               222         222
               223         223
               224         224
               225         225
               226         226
               227         227
               228         228
               229         229
               230         230
               231         231
               232         232
               233         233
               234         234
               235         235
               236         236
               237         237
               238         238
               239         239
               240         240
               241         241
               242         242
               243         243

----------------------------------------------------------------------------------------

 
 
 KPOINTS: pymatgen v2020.8.13 with grid density = 

Automatic generation of k-mesh.
 Grid dimensions read from file:
 generate k-points for:    2    2    1

 Generating k-lattice:

  Cartesian coordinates                     Fractional coordinates (reciprocal lattice)
     0.038449766  0.000000000  0.000000000     0.500000000  0.000000000  0.000000000
     0.000000000  0.042264076  0.000000000     0.000000000  0.500000000  0.000000000
     0.000000000  0.000000000  0.040000000     0.000000000  0.000000000  1.000000000

  Length of vectors
     0.038449766  0.042264076  0.040000000

  Shift w.r.t. Gamma in fractional coordinates (k-lattice)
     0.000000000  0.000000000  0.000000000

 
 Subroutine IBZKPT returns following result:
 ===========================================
 
 Found      4 irreducible k-points:
 
 Following reciprocal coordinates:
            Coordinates               Weight
  0.000000  0.000000  0.000000      1.000000
  0.500000  0.000000  0.000000      1.000000
  0.000000  0.500000  0.000000      1.000000
  0.500000  0.500000  0.000000      1.000000
 
 Following cartesian coordinates:
            Coordinates               Weight
  0.000000  0.000000  0.000000      1.000000
  0.038450  0.000000  0.000000      1.000000
  0.000000  0.042264  0.000000      1.000000
  0.038450  0.042264  0.000000      1.000000
 


--------------------------------------------------------------------------------------------------------




 Dimension of arrays:
   k-points           NKPTS =      4   k-points in BZ     NKDIM =      4   number of bands    NBANDS=   1164
   number of dos      NEDOS =    301   number of ions     NIONS =    243
   non local maximal  LDIM  =      6   non local SUM 2l+1 LMDIM =     18
   total plane-waves  NPLWV = ******
   max r-space proj   IRMAX =   4319   max aug-charges    IRDMAX=  20711
   dimension x,y,z NGX =   108 NGY =   96 NGZ =  196
   dimension x,y,z NGXF=   216 NGYF=  192 NGZF=  392
   support grid    NGXF=   216 NGYF=  192 NGZF=  392
   ions per type =               1   2  80 160
   NGX,Y,Z   is equivalent  to a cutoff of  13.81, 13.49, 13.03 a.u.
   NGXF,Y,Z  is equivalent  to a cutoff of  27.61, 26.98, 26.07 a.u.

 SYSTEM =  Oxide-Surface                           
 POSCAR =   C  O Ti  O                             

--------------------------------------------------------------------------------------------------------


  energy-cutoff  :     1000.00
  volume of cell :     3846.05
      direct lattice vectors                 reciprocal lattice vectors
    13.003980404  0.000000000  0.000000000     0.076899531  0.000000000  0.000000000
     0.000000000 11.830378115  0.000000000     0.000000000  0.084528152  0.000000000
     0.000000000  0.000000000 25.000000000     0.000000000  0.000000000  0.040000000

  length of vectors
    13.003980404 11.830378115 25.000000000     0.076899531  0.084528152  0.040000000


 
 k-points in units of 2pi/SCALE and weight: pymatgen v2020.8.13 with grid density = 
   0.00000000  0.00000000  0.00000000       0.250
   0.03844977  0.00000000  0.00000000       0.250
   0.00000000  0.04226408  0.00000000       0.250
   0.03844977  0.04226408  0.00000000       0.250
 
 k-points in reciprocal lattice and weights: pymatgen v2020.8.13 with grid density = 
   0.00000000  0.00000000  0.00000000       0.250
   0.50000000  0.00000000  0.00000000       0.250
   0.00000000  0.50000000  0.00000000       0.250
   0.50000000  0.50000000  0.00000000       0.250
 
 position of ions in fractional coordinates (direct lattice) 
   0.42123321  0.49999997  0.83285839
   0.36027470  0.49999996  0.86730104
   0.48627068  0.49999996  0.79963759
   0.75000900  0.62500000  0.18367433
   0.00000900  0.75000000  0.18367433
   0.00000900  0.62500000  0.31371413
   0.75000900  0.75000000  0.31371413
   0.75000900  0.62500000  0.44375394
   0.00000900  0.75000000  0.44375394
   0.00003927  0.62502196  0.57100877
   0.75004137  0.74997139  0.57909849
   0.74974079  0.62502929  0.71311159
   0.99994420  0.75013661  0.69819413
   0.75000900  0.87500000  0.18367433
   0.00000900  0.00000000  0.18367433
   0.00000900  0.87500000  0.31371413
   0.75000900  0.00000000  0.31371413
   0.75000900  0.87500000  0.44375394
   0.00000900  0.00000000  0.44375394
   0.99992971  0.87502413  0.57104928
   0.74995866  0.00000001  0.57910783
   0.74982576  0.87504672  0.71318267
   0.00021258  0.00000000  0.69820404
   0.75000900  0.12500000  0.18367433
   0.00000900  0.25000000  0.18367433
   0.00000900  0.12500000  0.31371413
   0.75000900  0.25000000  0.31371413
   0.75000900  0.12500000  0.44375394
   0.00000900  0.25000000  0.44375394
   0.99992981  0.12497587  0.57104929
   0.75004151  0.25002864  0.57909849
   0.74982577  0.12495328  0.71318267
   0.99994420  0.24986341  0.69819413
   0.75000900  0.37500000  0.18367433
   0.00000900  0.50000000  0.18367433
   0.00000900  0.37500000  0.31371413
   0.75000900  0.50000000  0.31371413
   0.75000900  0.37500000  0.44375394
   0.00000900  0.50000000  0.44375394
   0.00003940  0.37497805  0.57100876
   0.75010631  0.50000000  0.57913167
   0.74974079  0.37497071  0.71311159
   0.99955130  0.50000001  0.69815709
   0.25000900  0.62500000  0.18367433
   0.50000900  0.75000000  0.18367433
   0.50000900  0.62500000  0.31371413
   0.25000900  0.75000000  0.31371413
   0.25000900  0.62500000  0.44375394
   0.50000900  0.75000000  0.44375394
   0.50004064  0.62434084  0.57166144
   0.24995792  0.75011964  0.57892896
   0.24946042  0.62532099  0.71252435
   0.50015226  0.75005321  0.69767183
   0.25000900  0.87500000  0.18367433
   0.50000900  0.00000000  0.18367433
   0.50000900  0.87500000  0.31371413
   0.25000900  0.00000000  0.31371413
   0.25000900  0.87500000  0.44375394
   0.50000900  0.00000000  0.44375394
   0.50011465  0.87469816  0.57060706
   0.25006739  0.00000002  0.57914598
   0.25032649  0.87504365  0.71323854
   0.50005707  1.00000000  0.69775738
   0.25000900  0.12500000  0.18367433
   0.50000900  0.25000000  0.18367433
   0.50000900  0.12500000  0.31371413
   0.25000900  0.25000000  0.31371413
   0.25000900  0.12500000  0.44375394
   0.50000900  0.25000000  0.44375394
   0.50011478  0.12530183  0.57060707
   0.24995808  0.24988038  0.57892895
   0.25032648  0.12495635  0.71323854
   0.50015229  0.24994677  0.69767184
   0.25000900  0.37500000  0.18367433
   0.50000900  0.50000000  0.18367433
   0.50000900  0.37500000  0.31371413
   0.25000900  0.50000000  0.31371413
   0.25000900  0.37500000  0.44375394
   0.50000900  0.50000000  0.44375394
   0.50004073  0.37565915  0.57166146
   0.24989044  0.50000002  0.57886145
   0.24946043  0.37467900  0.71252433
   0.49942735  0.49999999  0.69991927
   0.75000900  0.75000000  0.13269896
   0.75000900  0.75000000  0.23464970
   0.09800855  0.62500000  0.18367433
   0.90200946  0.62500000  0.18367433
   0.00000900  0.75000000  0.26273876
   0.00000900  0.75000000  0.36468950
   0.84800855  0.62500000  0.31371413
   0.15200946  0.62500000  0.31371413
   0.75000900  0.75000000  0.39277857
   0.75000900  0.75000000  0.49472930
   0.09800855  0.62500000  0.44375394
   0.90200946  0.62500000  0.44375394
   0.99998327  0.75007087  0.52362880
   0.00012092  0.74993921  0.62593381
   0.85025597  0.62507179  0.57462351
   0.14971912  0.62512883  0.57445778
   0.75032056  0.75021825  0.65351094
   0.74979963  0.74995239  0.75652282
   0.09405639  0.62474319  0.71142818
   0.90589740  0.62504495  0.71120930
   0.75000900  0.00000000  0.13269896
   0.75000900  0.00000000  0.23464970
   0.09800855  0.87500000  0.18367433
   0.90200946  0.87500000  0.18367433
   0.00000900  0.00000000  0.26273876
   0.00000900  0.00000000  0.36468950
   0.84800855  0.87500000  0.31371413
   0.15200946  0.87500000  0.31371413
   0.75000900  0.00000000  0.39277857
   0.75000900  0.00000000  0.49472930
   0.09800855  0.87500000  0.44375394
   0.90200946  0.87500000  0.44375394
   0.99999100  0.00000001  0.52363400
   0.00013259  0.00000001  0.62593723
   0.85029222  0.87504436  0.57467818
   0.14980525  0.87513283  0.57463723
   0.75008909  0.00000001  0.65353745
   0.75028778  0.00000001  0.75656902
   0.09416276  0.87490430  0.71126363
   0.90603463  0.87496425  0.71110974
   0.75000900  0.25000000  0.13269896
   0.75000900  0.25000000  0.23464970
   0.09800855  0.12500000  0.18367433
   0.90200946  0.12500000  0.18367433
   0.00000900  0.25000000  0.26273876
   0.00000900  0.25000000  0.36468950
   0.84800855  0.12500000  0.31371413
   0.15200946  0.12500000  0.31371413
   0.75000900  0.25000000  0.39277857
   0.75000900  0.25000000  0.49472930
   0.09800855  0.12500000  0.44375394
   0.90200946  0.12500000  0.44375394
   0.99998326  0.24992914  0.52362880
   0.00012091  0.25006081  0.62593381
   0.85029222  0.12495566  0.57467819
   0.14980525  0.12486719  0.57463723
   0.75032056  0.24978176  0.65351094
   0.74979963  0.25004762  0.75652282
   0.09416276  0.12509571  0.71126363
   0.90603463  0.12503576  0.71110974
   0.75000900  0.50000000  0.13269896
   0.75000900  0.50000000  0.23464970
   0.09800855  0.37500000  0.18367433
   0.90200946  0.37500000  0.18367433
   0.00000900  0.50000000  0.26273876
   0.00000900  0.50000000  0.36468950
   0.84800855  0.37500000  0.31371413
   0.15200946  0.37500000  0.31371413
   0.75000900  0.50000000  0.39277857
   0.75000900  0.50000000  0.49472930
   0.09800855  0.37500000  0.44375394
   0.90200946  0.37500000  0.44375394
   0.99995781  0.50000001  0.52362000
   0.00003778  0.50000000  0.62590036
   0.85025596  0.37492823  0.57462351
   0.14971911  0.37487118  0.57445777
   0.75067977  0.50000001  0.65353849
   0.74916654  0.50000000  0.75644504
   0.09405639  0.37525682  0.71142818
   0.90589740  0.37495505  0.71120930
   0.25000900  0.75000000  0.13269896
   0.25000900  0.75000000  0.23464970
   0.59800855  0.62500000  0.18367433
   0.40200946  0.62500000  0.18367433
   0.50000900  0.75000000  0.26273876
   0.50000900  0.75000000  0.36468950
   0.34800855  0.62500000  0.31371413
   0.65200946  0.62500000  0.31371413
   0.25000900  0.75000000  0.39277857
   0.25000900  0.75000000  0.49472930
   0.59800855  0.62500000  0.44375394
   0.40200946  0.62500000  0.44375394
   0.49997104  0.74936538  0.52361277
   0.50029760  0.75073632  0.62549153
   0.35004228  0.62499676  0.57491253
   0.64995710  0.62495904  0.57485743
   0.24914789  0.75031515  0.65346813
   0.25068305  0.74945948  0.75645429
   0.59415830  0.62583075  0.71029091
   0.40510861  0.62662600  0.70926667
   0.25000900  0.00000000  0.13269896
   0.25000900  0.00000000  0.23464970
   0.59800855  0.87500000  0.18367433
   0.40200946  0.87500000  0.18367433
   0.50000900  0.00000000  0.26273876
   0.50000900  0.00000000  0.36468950
   0.34800855  0.87500000  0.31371413
   0.65200946  0.87500000  0.31371413
   0.25000900  0.00000000  0.39277857
   0.25000900  0.00000000  0.49472930
   0.59800855  0.87500000  0.44375394
   0.40200946  0.87500000  0.44375394
   0.49998242  0.00000001  0.52339458
   0.49997716  0.00000001  0.62556455
   0.35007694  0.87497245  0.57458758
   0.64993699  0.87505012  0.57452473
   0.25006087  0.00000001  0.65366378
   0.24989742  0.00000001  0.75663979
   0.59419623  0.87536339  0.71096373
   0.40590983  0.87513200  0.71101426
   0.25000900  0.25000000  0.13269896
   0.25000900  0.25000000  0.23464970
   0.59800855  0.12500000  0.18367433
   0.40200946  0.12500000  0.18367433
   0.50000900  0.25000000  0.26273876
   0.50000900  0.25000000  0.36468950
   0.34800855  0.12500000  0.31371413
   0.65200946  0.12500000  0.31371413
   0.25000900  0.25000000  0.39277857
   0.25000900  0.25000000  0.49472930
   0.59800855  0.12500000  0.44375394
   0.40200946  0.12500000  0.44375394
   0.49997104  0.25063464  0.52361278
   0.50029761  0.24926368  0.62549153
   0.35007693  0.12502756  0.57458758
   0.64993698  0.12494990  0.57452473
   0.24914788  0.24968487  0.65346813
   0.25068305  0.25054054  0.75645429
   0.59419623  0.12463662  0.71096373
   0.40590983  0.12486801  0.71101427
   0.25000900  0.50000000  0.13269896
   0.25000900  0.50000000  0.23464970
   0.59800855  0.37500000  0.18367433
   0.40200946  0.37500000  0.18367433
   0.50000900  0.50000000  0.26273876
   0.50000900  0.50000000  0.36468950
   0.34800855  0.37500000  0.31371413
   0.65200946  0.37500000  0.31371413
   0.25000900  0.50000000  0.39277857
   0.25000900  0.50000000  0.49472930
   0.59800855  0.37500000  0.44375394
   0.40200946  0.37500000  0.44375394
   0.49996900  0.49999999  0.52386195
   0.50013282  0.50000001  0.62663141
   0.35004228  0.37500325  0.57491254
   0.64995709  0.37504097  0.57485743
   0.24844629  0.50000001  0.65328858
   0.25345953  0.50000000  0.75615697
   0.59415830  0.37416926  0.71029090
   0.40510861  0.37337401  0.70926666
 
 position of ions in cartesian coordinates  (Angst):
   5.47770835  5.91518867 20.82145965
   4.68500519  5.91518860 21.68252602
   6.32345434  5.91518863 19.99093966
   9.75310240  7.39398637  4.59185818
   0.00011710  8.87278363  4.59185818
   0.00011710  7.39398637  7.84285328
   9.75310240  8.87278363  7.84285328
   9.75310240  7.39398637 11.09384838
   0.00011710  8.87278363 11.09384838
   0.00051064  7.39424610 14.27521917
   9.75352324  8.87244515 14.47746221
   9.74961452  7.39433287 17.82778969
  13.00325478  8.87439974 17.45485334
   9.75310240 10.35158090  4.59185818
   0.00011710  0.00000005  4.59185818
   0.00011710 10.35158090  7.84285328
   9.75310240  0.00000005  7.84285328
   9.75310240 10.35158090 11.09384838
   0.00011710  0.00000005 11.09384838
  13.00306633 10.35186630 14.27623212
   9.75244776  0.00000008 14.47769576
   9.75071947 10.35213357 17.82956676
   0.00276439  0.00000006 17.45510107
   9.75310240  1.47879731  4.59185818
   0.00011710  2.95759457  4.59185818
   0.00011710  1.47879731  7.84285328
   9.75310240  2.95759457  7.84285328
   9.75310240  1.47879731 11.09384838
   0.00011710  2.95759457 11.09384838
  13.00306761  1.47851184 14.27623221
   9.75352515  2.95793337 14.47746216
   9.75071967  1.47824458 17.82956667
  13.00325484  2.95597863 17.45485331
   9.75310240  4.43639184  4.59185818
   0.00011710  5.91518910  4.59185818
   0.00011710  4.43639184  7.84285328
   9.75310240  5.91518910  7.84285328
   9.75310240  4.43639184 11.09384838
   0.00011710  5.91518910 11.09384838
   0.00051239  4.43613209 14.27521901
   9.75436778  5.91518911 14.47829186
   9.74961453  4.43604528 17.82778967
  12.99814558  5.91518914 17.45392724
   3.25111220  7.39398637  4.59185818
   6.50210730  8.87278363  4.59185818
   6.50210730  7.39398637  7.84285328
   3.25111220  8.87278363  7.84285328
   3.25111220  7.39398637 11.09384838
   6.50210730  8.87278363 11.09384838
   6.50251871  7.38618826 14.29153596
   3.25044793  8.87419897 14.47322393
   3.24397836  7.39778380 17.81310870
   6.50397022  8.87341304 17.44179572
   3.25111220 10.35158090  4.59185818
   6.50210730  0.00000005  4.59185818
   6.50210730 10.35158090  7.84285328
   3.25111220  0.00000005  7.84285328
   3.25111220 10.35158090 11.09384838
   6.50210730  0.00000005 11.09384838
   6.50348108 10.34801001 14.26517654
   3.25187141  0.00000020 14.47864951
   3.25524076 10.35209726 17.83096347
   6.50273236 11.83037807 17.44393459
   3.25111220  1.47879731  4.59185818
   6.50210730  2.95759457  4.59185818
   6.50210730  1.47879731  7.84285328
   3.25111220  2.95759457  7.84285328
   3.25111220  1.47879731 11.09384838
   6.50210730  2.95759457 11.09384838
   6.50348281  1.48236799 14.26517674
   3.25044995  2.95617932 14.47322373
   3.25524070  1.47828084 17.83096352
   6.50397052  2.95696485 17.44179594
   3.25111220  4.43639184  4.59185818
   6.50210730  5.91518910  4.59185818
   6.50210730  4.43639184  7.84285328
   3.25111220  5.91518910  7.84285328
   3.25111220  4.43639184 11.09384838
   6.50210730  5.91518910 11.09384838
   6.50251989  4.44418973 14.29153645
   3.24957040  5.91518931 14.47153619
   3.24397852  4.43259425 17.81310827
   6.49454353  5.91518897 17.49798164
   9.75310240  8.87278363  3.31747398
   9.75310240  8.87278363  5.86624239
   1.27450130  7.39398637  4.59185818
  11.72971329  7.39398637  4.59185818
   0.00011710  8.87278363  6.56846908
   0.00011710  8.87278363  9.11723749
  11.02748660  7.39398637  7.84285328
   1.97672799  7.39398637  7.84285328
   9.75310240  8.87278363  9.81946418
   9.75310240  8.87278363 12.36823259
   1.27450130  7.39398637 11.09384838
  11.72971329  7.39398637 11.09384838
  13.00376281  8.87362205 13.09072003
   0.00157241  8.87206440 15.64834522
  11.05671195  7.39483565 14.36558774
   1.94694451  7.39551043 14.36144457
   9.75715381  8.87536553 16.33777351
   9.75037974  8.87222036 18.91307043
   1.22310747  7.39094816 17.78570448
  11.78027210  7.39451814 17.78023261
   9.75310240  0.00000005  3.31747398
   9.75310240  0.00000005  5.86624239
   1.27450130 10.35158090  4.59185818
  11.72971329 10.35158090  4.59185818
   0.00011710  0.00000005  6.56846908
   0.00011710  0.00000005  9.11723749
  11.02748660 10.35158090  7.84285328
   1.97672799 10.35158090  7.84285328
   9.75310240  0.00000005  9.81946418
   9.75310240  0.00000005 12.36823259
   1.27450130 10.35158090 11.09384838
  11.72971329 10.35158090 11.09384838
  13.00386331  0.00000009 13.09085009
   0.00172423  0.00000010 15.64843067
  11.05718340 10.35210561 14.36695460
   1.94806457 10.35315228 14.36593073
   9.75414378  0.00000013 16.33843636
   9.75672754  0.00000008 18.91422551
   1.22449065 10.35044865 17.78159068
  11.78205661 10.35115796 17.77774355
   9.75310240  2.95759457  3.31747398
   9.75310240  2.95759457  5.86624239
   1.27450130  1.47879731  4.59185818
  11.72971329  1.47879731  4.59185818
   0.00011710  2.95759457  6.56846908
   0.00011710  2.95759457  9.11723749
  11.02748660  1.47879731  7.84285328
   1.97672799  1.47879731  7.84285328
   9.75310240  2.95759457  9.81946418
   9.75310240  2.95759457 12.36823259
   1.27450130  1.47879731 11.09384838
  11.72971329  1.47879731 11.09384838
  13.00376271  2.95675617 13.09072000
   0.00157236  2.95831390 15.64834521
  11.05718336  1.47827267 14.36695463
   1.94806454  1.47722604 14.36593069
   9.75715385  2.95501272 16.33777349
   9.75037967  2.95815787 18.91307040
   1.22449069  1.47992960 17.78159067
  11.78205662  1.47922033 17.77774362
   9.75310240  5.91518910  3.31747398
   9.75310240  5.91518910  5.86624239
   1.27450130  4.43639184  4.59185818
  11.72971329  4.43639184  4.59185818
   0.00011710  5.91518910  6.56846908
   0.00011710  5.91518910  9.11723749
  11.02748660  4.43639184  7.84285328
   1.97672799  4.43639184  7.84285328
   9.75310240  5.91518910  9.81946418
   9.75310240  5.91518910 12.36823259
   1.27450130  4.43639184 11.09384838
  11.72971329  4.43639184 11.09384838
  13.00343176  5.91518914 13.09050012
   0.00049131  5.91518910 15.64750912
  11.05671183  4.43554271 14.36558776
   1.94694440  4.43486777 14.36144436
   9.76182498  5.91518919 16.33846237
   9.74214704  5.91518908 18.91112592
   1.22310747  4.43943009 17.78570447
  11.78027209  4.43586007 17.78023257
   3.25111220  8.87278363  3.31747398
   3.25111220  8.87278363  5.86624239
   7.77649150  7.39398637  4.59185818
   5.22772309  7.39398637  4.59185818
   6.50210730  8.87278363  6.56846908
   6.50210730  8.87278363  9.11723749
   4.52549640  7.39398637  7.84285328
   8.47871819  7.39398637  7.84285328
   3.25111220  8.87278363  9.81946418
   3.25111220  8.87278363 12.36823259
   7.77649150  7.39398637 11.09384838
   5.22772309  7.39398637 11.09384838
   6.50161356  8.86527578 13.09031937
   6.50586021  8.88149457 15.63728816
   4.55194297  7.39394803 14.37281329
   8.45202934  7.39350174 14.37143566
   3.23991430  8.87651190 16.33670337
   3.25987741  8.86638900 18.91135729
   7.72642287  7.40381436 17.75727270
   5.26802438  7.41322254 17.73166686
   3.25111220  0.00000005  3.31747398
   3.25111220  0.00000005  5.86624239
   7.77649150 10.35158090  4.59185818
   5.22772309 10.35158090  4.59185818
   6.50210730  0.00000005  6.56846908
   6.50210730  0.00000005  9.11723749
   4.52549640 10.35158090  7.84285328
   8.47871819 10.35158090  7.84285328
   3.25111220  0.00000005  9.81946418
   3.25111220  0.00000005 12.36823259
   7.77649150 10.35158090 11.09384838
   5.22772309 10.35158090 11.09384838
   6.50176162  0.00000006 13.08486458
   6.50169323  0.00000008 15.63911370
   4.55239362 10.35125492 14.36468952
   8.45176789 10.35217380 14.36311818
   3.25178671  0.00000007 16.34159459
   3.24966122  0.00000011 18.91599464
   7.72691614 10.35587995 17.77409330
   5.27844344 10.35314251 17.77535662
   3.25111220  2.95759457  3.31747398
   3.25111220  2.95759457  5.86624239
   7.77649150  1.47879731  4.59185818
   5.22772309  1.47879731  4.59185818
   6.50210730  2.95759457  6.56846908
   6.50210730  2.95759457  9.11723749
   4.52549640  1.47879731  7.84285328
   8.47871819  1.47879731  7.84285328
   3.25111220  2.95759457  9.81946418
   3.25111220  2.95759457 12.36823259
   7.77649150  1.47879731 11.09384838
   5.22772309  1.47879731 11.09384838
   6.50161357  2.96510251 13.09031954
   6.50586027  2.94888353 15.63728826
   4.55239355  1.47912332 14.36468961
   8.45176780  1.47820456 14.36311813
   3.23991419  2.95386646 16.33670322
   3.25987751  2.96398937 18.91135722
   7.72691617  1.47449830 17.77409326
   5.27844349  1.47723574 17.77535664
   3.25111220  5.91518910  3.31747398
   3.25111220  5.91518910  5.86624239
   7.77649150  4.43639184  4.59185818
   5.22772309  4.43639184  4.59185818
   6.50210730  5.91518910  6.56846908
   6.50210730  5.91518910  9.11723749
   4.52549640  4.43639184  7.84285328
   8.47871819  4.43639184  7.84285328
   3.25111220  5.91518910  9.81946418
[...]
      9.75072      1.47824     17.82957         0.002614     -0.008554      0.037958
     13.00325      2.95598     17.45485        -0.000940     -0.012639      0.029332
      9.75310      4.43639      4.59186        -0.000349     -0.001024     -3.490854
      0.00012      5.91519      4.59186        -0.001265     -0.000003      2.792097
      0.00012      4.43639      7.84285        -0.003743     -0.000273      0.509481
      9.75310      5.91519      7.84285        -0.002316      0.000000     -0.711099
      9.75310      4.43639     11.09385        -0.010913      0.001315      0.706601
      0.00012      5.91519     11.09385        -0.010040     -0.000000     -0.753245
      0.00051      4.43613     14.27522        -0.002511     -0.000054      0.093947
      9.75437      5.91519     14.47829         0.002075     -0.000001     -0.013676
      9.74961      4.43605     17.82779         0.004445     -0.007824      0.038841
     12.99815      5.91519     17.45393        -0.010543      0.000003      0.031787
      3.25111      7.39399      4.59186        -0.003082      0.000035     -3.494633
      6.50211      8.87278      4.59186        -0.002055      0.001226      2.797886
      6.50211      7.39399      7.84285         0.000792      0.005146      0.514168
      3.25111      8.87278      7.84285        -0.000046      0.001142     -0.719875
      3.25111      7.39399     11.09385         0.007984      0.008853      0.674413
      6.50211      8.87278     11.09385         0.003838     -0.010477     -0.708822
      6.50252      7.38619     14.29154         0.004704     -0.010146      0.074596
      3.25045      8.87420     14.47322         0.004542     -0.002896     -0.009606
      3.24398      7.39778     17.81311        -0.000588      0.000651      0.049803
      6.50397      8.87341     17.44180         0.005750      0.007508     -0.001454
      3.25111     10.35158      4.59186        -0.002651      0.000322     -3.493969
      6.50211      0.00000      4.59186        -0.001761     -0.000008      2.797035
      6.50211     10.35158      7.84285         0.000505      0.002186      0.517103
      3.25111      0.00000      7.84285         0.000293     -0.000002     -0.717902
      3.25111     10.35158     11.09385         0.004179      0.021843      0.694547
      6.50211      0.00000     11.09385         0.001616      0.000001     -0.775984
      6.50348     10.34801     14.26518         0.002493     -0.021699      0.085928
      3.25187      0.00000     14.47865         0.004375     -0.000000     -0.013290
      3.25524     10.35210     17.83096        -0.005077      0.016702      0.035043
      6.50273     11.83038     17.44393         0.005005     -0.000001     -0.006322
      3.25111      1.47880      4.59186        -0.002654     -0.000320     -3.493980
      6.50211      2.95759      4.59186        -0.002052     -0.001226      2.797874
      6.50211      1.47880      7.84285         0.000504     -0.002188      0.517107
      3.25111      2.95759      7.84285        -0.000045     -0.001140     -0.719875
      3.25111      1.47880     11.09385         0.004180     -0.021844      0.694545
      6.50211      2.95759     11.09385         0.003838      0.010476     -0.708818
      6.50348      1.48237     14.26518         0.002477      0.021701      0.085929
      3.25045      2.95618     14.47322         0.004522      0.002893     -0.009602
      3.25524      1.47828     17.83096        -0.005070     -0.016693      0.035106
      6.50397      2.95696     17.44180         0.005745     -0.007501     -0.001489
      3.25111      4.43639      4.59186        -0.003090     -0.000040     -3.494613
      6.50211      5.91519      4.59186        -0.002379      0.000004      2.798500
      6.50211      4.43639      7.84285         0.000791     -0.005144      0.514171
      3.25111      5.91519      7.84285        -0.000352     -0.000000     -0.721722
      3.25111      4.43639     11.09385         0.007985     -0.008854      0.674412
      6.50211      5.91519     11.09385         0.006131     -0.000001     -0.709173
      6.50252      4.44419     14.29154         0.004689      0.010146      0.074596
      3.24957      5.91519     14.47154         0.016685     -0.000003      0.000673
      3.24398      4.43259     17.81311        -0.000598     -0.000658      0.049725
      6.49454      5.91519     17.49798        -0.000320      0.000003      0.083801
      9.75310      8.87278      3.31747        -0.001412     -0.000828      1.870372
      9.75310      8.87278      5.86624        -0.000330     -0.000452      1.712217
      1.27450      7.39399      4.59186        -1.881399     -0.000050     -0.793163
     11.72971      7.39399      4.59186         1.880471     -0.000113     -0.793461
      0.00012      8.87278      6.56847         0.000017     -0.000137     -1.337456
      0.00012      8.87278      9.11724         0.000405     -0.000209     -0.122594
     11.02749      7.39399      7.84285         0.414773     -0.000104      0.055698
      1.97673      7.39399      7.84285        -0.412963     -0.000410      0.056874
      9.75310      8.87278      9.81946         0.000813     -0.000159     -0.099463
      9.75310      8.87278     12.36823         0.002063     -0.001740      0.026792
      1.27450      7.39399     11.09385        -0.494516     -0.000747      0.094795
     11.72971      7.39399     11.09385         0.506730      0.000194      0.092165
     13.00376      8.87362     13.09072        -0.000119     -0.001274      0.005575
      0.00157      8.87206     15.64835         0.002683      0.000611     -0.020482
     11.05671      7.39484     14.36559        -0.029711     -0.002085      0.004014
      1.94694      7.39551     14.36144         0.027423     -0.001276      0.000790
      9.75715      8.87537     16.33777         0.003780     -0.001505      0.025240
      9.75038      8.87222     18.91307        -0.000468     -0.002272     -0.070727
      1.22311      7.39095     17.78570        -0.070311     -0.002350      0.054050
     11.78027      7.39452     17.78023         0.060698     -0.000736      0.048306
      9.75310      0.00000      3.31747        -0.001105      0.000002      1.871569
      9.75310      0.00000      5.86624        -0.000281      0.000003      1.712365
      1.27450     10.35158      4.59186        -1.881417     -0.000074     -0.793206
     11.72971     10.35158      4.59186         1.880774     -0.000112     -0.793327
      0.00012      0.00000      6.56847         0.000020     -0.000000     -1.337490
      0.00012      0.00000      9.11724         0.000319      0.000000     -0.122751
     11.02749     10.35158      7.84285         0.414727     -0.000150      0.055736
      1.97673     10.35158      7.84285        -0.413184     -0.000450      0.056681
      9.75310      0.00000      9.81946         0.000413     -0.000001     -0.099315
      9.75310      0.00000     12.36823         0.006356     -0.000000      0.019621
      1.27450     10.35158     11.09385        -0.498895     -0.001454      0.092646
     11.72971     10.35158     11.09385         0.505482     -0.000159      0.091490
     13.00386      0.00000     13.09085         0.000507     -0.000001      0.006551
      0.00172      0.00000     15.64843         0.002415     -0.000000     -0.020856
     11.05718     10.35211     14.36695        -0.027928     -0.001324      0.004904
      1.94806     10.35315     14.36593         0.029788     -0.000165      0.003071
      9.75414      0.00000     16.33844         0.004682     -0.000001      0.024589
      9.75673      0.00000     18.91423         0.000170      0.000002     -0.072232
      1.22449     10.35045     17.78159        -0.061058      0.001772      0.049123
     11.78206     10.35116     17.77774         0.062063     -0.000336      0.048304
      9.75310      2.95759      3.31747        -0.001410      0.000830      1.870369
      9.75310      2.95759      5.86624        -0.000330      0.000452      1.712214
      1.27450      1.47880      4.59186        -1.881425      0.000074     -0.793206
     11.72971      1.47880      4.59186         1.880776      0.000112     -0.793329
      0.00012      2.95759      6.56847         0.000017      0.000135     -1.337452
      0.00012      2.95759      9.11724         0.000404      0.000208     -0.122593
     11.02749      1.47880      7.84285         0.414727      0.000151      0.055736
      1.97673      1.47880      7.84285        -0.413184      0.000450      0.056681
      9.75310      2.95759      9.81946         0.000813      0.000160     -0.099463
      9.75310      2.95759     12.36823         0.002063      0.001742      0.026792
      1.27450      1.47880     11.09385        -0.498894      0.001454      0.092646
     11.72971      1.47880     11.09385         0.505482      0.000159      0.091489
     13.00376      2.95676     13.09072        -0.000117      0.001274      0.005576
      0.00157      2.95831     15.64835         0.002684     -0.000611     -0.020478
     11.05718      1.47827     14.36695        -0.027928      0.001324      0.004905
      1.94806      1.47723     14.36593         0.029788      0.000165      0.003071
      9.75715      2.95501     16.33777         0.003779      0.001508      0.025246
      9.75038      2.95816     18.91307        -0.000469      0.002267     -0.070753
      1.22449      1.47993     17.78159        -0.061061     -0.001772      0.049125
     11.78206      1.47922     17.77774         0.062063      0.000335      0.048304
      9.75310      5.91519      3.31747        -0.001733     -0.000003      1.869077
      9.75310      5.91519      5.86624        -0.000364     -0.000002      1.711994
      1.27450      4.43639      4.59186        -1.881397      0.000050     -0.793164
     11.72971      4.43639      4.59186         1.880472      0.000113     -0.793463
      0.00012      5.91519      6.56847         0.000012      0.000003     -1.337424
      0.00012      5.91519      9.11724         0.000512      0.000001     -0.122437
     11.02749      4.43639      7.84285         0.414772      0.000104      0.055699
      1.97673      4.43639      7.84285        -0.412960      0.000410      0.056874
      9.75310      5.91519      9.81946         0.001513     -0.000000     -0.099875
      9.75310      5.91519     12.36823         0.000064     -0.000001      0.031518
      1.27450      4.43639     11.09385        -0.494516      0.000747      0.094795
     11.72971      4.43639     11.09385         0.506730     -0.000193      0.092165
     13.00343      5.91519     13.09050        -0.001723      0.000000      0.002378
      0.00049      5.91519     15.64751         0.002736     -0.000000     -0.024034
     11.05671      4.43554     14.36559        -0.029711      0.002085      0.004015
      1.94694      4.43487     14.36144         0.027423      0.001276      0.000791
      9.76182      5.91519     16.33846        -0.004049     -0.000002      0.027164
      9.74215      5.91519     18.91113         0.007947      0.000003     -0.064899
      1.22311      4.43943     17.78570        -0.070304      0.002349      0.054051
     11.78027      4.43586     17.78023         0.060694      0.000737      0.048305
      3.25111      8.87278      3.31747         0.000717     -0.000124      1.872207
      3.25111      8.87278      5.86624        -0.000254     -0.000224      1.715350
      7.77649      7.39399      4.59186        -1.881869     -0.000423     -0.794957
      5.22772      7.39399      4.59186         1.881431     -0.000350     -0.794582
      6.50211      8.87278      6.56847        -0.000486     -0.001159     -1.341466
      6.50211      8.87278      9.11724        -0.000922     -0.002485     -0.134759
      4.52550      7.39399      7.84285         0.410755     -0.000661      0.056500
      8.47872      7.39399      7.84285        -0.413865     -0.000344      0.055427
      3.25111      8.87278      9.81946        -0.001369     -0.006114     -0.087681
      3.25111      8.87278     12.36823        -0.001109     -0.005301      0.034730
      7.77649      7.39399     11.09385        -0.500595     -0.012886      0.087804
      5.22772      7.39399     11.09385         0.485907     -0.013501      0.088822
      6.50161      8.86528     13.09032         0.000025      0.007527      0.001808
      6.50586      8.88149     15.63729         0.000507     -0.004606     -0.018625
      4.55194      7.39395     14.37281        -0.028187      0.001361      0.003799
      8.45203      7.39350     14.37144         0.032991      0.001356      0.001181
      3.23991      8.87651     16.33670        -0.002610     -0.002243      0.023694
      3.25988      8.86639     18.91136         0.002930      0.004829     -0.069048
      7.72642      7.40381     17.75727        -0.050143      0.005357      0.039127
      5.26802      7.41322     17.73167         0.059791      0.015636      0.024406
      3.25111      0.00000      3.31747         0.000478     -0.000002      1.872201
      3.25111      0.00000      5.86624        -0.000312     -0.000002      1.714676
      7.77649     10.35158      4.59186        -1.881931     -0.000380     -0.794418
      5.22772     10.35158      4.59186         1.881207     -0.000341     -0.794271
      6.50211      0.00000      6.56847        -0.000499      0.000000     -1.342108
      6.50211      0.00000      9.11724        -0.000794      0.000001     -0.140970
      4.52550     10.35158      7.84285         0.409978     -0.000523      0.056231
      8.47872     10.35158      7.84285        -0.412827     -0.000227      0.055328
      3.25111      0.00000      9.81946        -0.001211      0.000000     -0.091534
      3.25111      0.00000     12.36823        -0.000915     -0.000000      0.021191
      7.77649     10.35158     11.09385        -0.497260     -0.004747      0.090941
      5.22772     10.35158     11.09385         0.488738     -0.005835      0.090617
      6.50176      0.00000     13.08486        -0.000030     -0.000000      0.004093
      6.50169      0.00000     15.63911        -0.000328     -0.000001     -0.028226
      4.55239     10.35125     14.36469        -0.030626      0.001369      0.004580
      8.45177     10.35217     14.36312         0.029056      0.001189      0.004071
      3.25179      0.00000     16.34159        -0.002037     -0.000003      0.028042
      3.24966      0.00000     18.91599         0.005971      0.000005     -0.067095
      7.72692     10.35588     17.77409        -0.062202      0.003332      0.044773
      5.27844     10.35314     17.77536         0.060302     -0.000382      0.042957
      3.25111      2.95759      3.31747         0.000716      0.000122      1.872225
      3.25111      2.95759      5.86624        -0.000252      0.000225      1.715351
      7.77649      1.47880      4.59186        -1.881927      0.000378     -0.794418
      5.22772      1.47880      4.59186         1.881212      0.000340     -0.794271
      6.50211      2.95759      6.56847        -0.000487      0.001159     -1.341464
      6.50211      2.95759      9.11724        -0.000922      0.002485     -0.134758
      4.52550      1.47880      7.84285         0.409980      0.000523      0.056231
      8.47872      1.47880      7.84285        -0.412827      0.000228      0.055329
      3.25111      2.95759      9.81946        -0.001369      0.006113     -0.087681
      3.25111      2.95759     12.36823        -0.001109      0.005302      0.034730
      7.77649      1.47880     11.09385        -0.497260      0.004748      0.090941
      5.22772      1.47880     11.09385         0.488738      0.005835      0.090617
      6.50161      2.96510     13.09032         0.000025     -0.007528      0.001806
      6.50586      2.94888     15.63729         0.000507      0.004606     -0.018619
      4.55239      1.47912     14.36469        -0.030626     -0.001369      0.004579
      8.45177      1.47820     14.36312         0.029056     -0.001191      0.004072
      3.23991      2.95387     16.33670        -0.002610      0.002250      0.023695
      3.25988      2.96399     18.91136         0.002930     -0.004848     -0.069032
      7.72692      1.47450     17.77409        -0.062201     -0.003335      0.044774
      5.27844      1.47724     17.77536         0.060306      0.000384      0.042957
      3.25111      5.91519      3.31747         0.000894      0.000005      1.872712
      3.25111      5.91519      5.86624        -0.000227      0.000002      1.715876
      7.77649      4.43639      4.59186        -1.881869      0.000425     -0.794958
      5.22772      4.43639      4.59186         1.881432      0.000352     -0.794582
      6.50211      5.91519      6.56847        -0.000476      0.000001     -1.340472
      6.50211      5.91519      9.11724        -0.001058      0.000001     -0.116079
      4.52550      4.43639      7.84285         0.410754      0.000662      0.056500
      8.47872      4.43639      7.84285        -0.413865      0.000344      0.055428
      3.25111      5.91519      9.81946        -0.002080      0.000000     -0.084627
      3.25111      5.91519     12.36823         0.001181      0.000000      0.034435
      7.77649      4.43639     11.09385        -0.500594      0.012886      0.087803
      5.22772      4.43639     11.09385         0.485907      0.013501      0.088821
      6.50159      5.91519     13.09655        -0.001941      0.000001     -0.002373
      6.50372      5.91519     15.66579        -0.001903     -0.000000     -0.012512
      4.55194      4.43643     14.37281        -0.028188     -0.001361      0.003799
      8.45203      4.43688     14.37144         0.032992     -0.001355      0.001182
      3.23079      5.91519     16.33221         0.000226     -0.000004      0.027934
      3.29598      5.91519     18.90392        -0.043122      0.000012     -0.059626
      7.72642      4.42656     17.75727        -0.050139     -0.005356      0.039131
      5.26802      4.41716     17.73167         0.059784     -0.015638      0.024411
 -----------------------------------------------------------------------------------
    total drift:                                0.032674     -0.000044     -0.359730


--------------------------------------------------------------------------------------------------------



  FREE ENERGIE OF THE ION-ELECTRON SYSTEM (eV)
  ---------------------------------------------------
  free  energy   TOTEN  =     -2187.47053868 eV

  energy  without entropy=    -2187.47053868  energy(sigma->0) =    -2187.47053868
 


--------------------------------------------------------------------------------------------------------


    POTLOK:  cpu time      3.5400: real time      3.5674


--------------------------------------------------------------------------------------------------------


     LOOP+:  cpu time   2513.3947: real time   2520.9246
    4ORBIT:  cpu time      0.0000: real time      0.0000

 total amount of memory used by VASP MPI-rank0  5831221. kBytes
=======================================================================

   base      :      30000. kBytes
   nonlr-proj:      79010. kBytes
   fftplans  :     145087. kBytes
   grid      :     375238. kBytes
   one-center:       3779. kBytes
   wavefun   :    5198107. kBytes
 
  
  
 General timing and accounting informations for this job:
 ========================================================
  
                  Total CPU time used (sec):     2565.116
                            User time (sec):     2560.016
                          System time (sec):        5.100
                         Elapsed time (sec):     2577.804
  
                   Maximum memory used (kb):     7156920.
                   Average memory used (kb):          N/A
  
                          Minor page faults:       445495
                          Major page faults:           45
                 Voluntary context switches:        46076
